name,molweight,critical temperature (K),acentric factor,boiling point (K),SMILES
diethyl sulfite,138.1876,624.0,0.507,431.15,CCCCCCSCCCCCC
diethylamine,73.13808,496.6,0.304,328.6,CCCCCCNCCCCCC
diethylbenzene,134.22116,664.65,0.378,455.05,ICI
diethylbutylamine,129.2456,577.33,0.481,409.15,CC(C)CC(=O)CC(C)C
diethylcyclohexane; (mixed isomers),140.2688,667.0,0.274,447.15,CC(C)COC(=O)c1ccccc1C(=O)OCC(C)C
diethyldecylamine,213.40688,675.16,0.717,520.15,CC(C)CSCC(C)C
diethyldodecylamine,241.46064,700.59,0.771,550.15,CC(C)C[S](=O)(=O)CC(C)C
diethyleicosylamine,353.67568,791.74,0.737,646.15,CC(C)CNCC(C)C
diethylene glycol,106.1216,744.6,0.622,517.95,CC(C)CCCCCCOC(=O)c1ccccc1C(=O)OCCCCCCC(C)C
diethylene glycol dibutyl ether,218.33664,680.0,0.846,529.15,CC(C)CCCCCOC(=O)c1ccccc1C(=O)OCCCCCC(C)C
diethylene glycol diethyl ether,162.22912,624.0,0.681,462.15,CC(C)CCSSCCC(C)C
diethylene glycol dimethyl ether,134.17536,608.0,0.577,435.65,CC(C)CCOCCC(C)C
diethylene glycol ethyl ether acetate,176.21264,660.0,0.715,490.55,CC(C)CCSCCC(C)C
diethylene glycol monobutyl ether,162.22912,692.3,0.655,504.15,CC(C)CCNCCC(C)C
diethylene glycol monobutyl ether acetate,204.2664,679.0,0.842,518.45,CC(C)SSC(C)C
diethylene glycol monopropyl ether,132.20284,679.0,0.611,487.99,CC(C)OC(C)C
diethylene triamine,103.16744,676.0,0.7,480.25,CC(C)SC(C)C
diethylheneicosylamine,367.70256,803.37,0.708,656.15,CC(C)NC(C)C
diethylheptadecylamine,311.59504,758.3,0.804,614.15,CC(C)c1ccccc1C(C)C
diethylheptylamine,171.32624,634.32,0.609,471.15,C=C1CC(=O)O1
diethylhexadecylamine,297.56816,746.71,0.812,602.15,-
diethylhexylamine,157.29936,617.59,0.568,452.15,CO[Si](C)(C)OC
diethylisopropylamine,115.21872,552.49,0.406,381.65,COC(=O)OC
diethylnonadecylamine,339.6488,780.79,0.767,636.15,-
diethylnonylamine,199.38,661.69,0.684,504.15,CSSC
diethyloctadecylamine,325.62192,769.24,0.79,625.15,COC
diethyloctylamine,185.35312,645.88,0.648,486.15,COC(=O)c1cccc(c1)C(=O)OC
diethylpentadecylamine,283.54128,735.67,0.811,590.15,COC(=O)\C=C/C(=O)OC
diethylpentylamine,143.27248,595.41,0.525,429.15,Cc1cccc(O)c1C
diethylpropylamine,115.21872,553.45,0.437,385.15,COC(=O)c1ccccc1C(=O)OC
diethyltetradecylamine,269.5144,723.91,0.804,577.15,C[SiH2]C
diethyltridecylamine,255.48752,712.65,0.791,564.15,COC(=O)CCC(=O)OC
diethylundecylamine,227.43376,688.97,0.746,536.15,CO[S](=O)(=O)OC
difluoromethane,52.0236864,351.26,0.277,221.5,CSC
digermane,151.26764,491.01,0.165,303.95,C[S](C)=O
diglycolic acid,134.08864,820.0,0.108,610.0,COC(=O)c1ccc(cc1)C(=O)OC
diheptyl disulfide,262.5242,765.96,0.758,593.86,CCC(C)(C)N(C)C
diheptyl ether,214.3916,692.83,0.71,535.15,CC(C)C(C)N(C)C
diheptyl phthalate,362.50956,815.0,1.105,663.0,CN(C)CC(C)(C)C
diheptyl sulfide,230.4582,762.23,0.7,571.15,COC(=O)c1ccc2cc(ccc2c1)C(=O)OC
diheptylamine,213.40688,706.4,0.761,545.15,CCC(C)CN(C)C
dihexyl adipate,314.46556,767.0,1.094,621.15,CCCC(C)N(C)C
dihexyl disulfide,234.47044,747.1,0.692,566.66,CC(C)CCN(C)C
dihexyl ether,186.33784,658.0,0.711,498.85,CCC(CC)N(C)C
dihexyl sulfide,202.40444,733.68,0.631,503.15,CCCN(C)C
dihexylamine,185.35312,678.2,0.69,512.95,CCC(C)N(C)C
diiodomethane,267.83582,747.0,0.141,455.15,CN(C)C(C)(C)C
diisobutyl ketone,142.24132,615.0,0.512,441.41,CC#CC
diisobutyl phthalate,278.34828,762.0,0.916,593.15,[Cl-].C[Al+]C
diisobutyl sulfide,146.29692,658.04,0.447,444.15,CNC
diisobutyl sulfone,178.29572,767.0,0.688,538.15,CCCCN(C)C
diisobutylamine,129.2456,580.0,0.485,412.25,CCCCCCCCCCN(C)C
diisononyl phthalate,418.61708,835.0,1.031,682.0,CCCCCCCCCCCCCCCCCCCCCCN(C)C
diisooctyl phthalate,390.56332,851.0,1.088,694.0,CCCCCCCCCCCCN(C)C
diisopentyl disulfide,206.41668,726.94,0.614,520.15,CCCCCCCCCCCCCCCCCCCCN(C)C
diisopentyl ether,158.28408,622.0,0.601,445.65,CC(C)(O)CN
diisopentyl sulfide,174.35068,701.03,0.551,489.2,CCN(C)C
diisopentylamine,157.29936,644.56,0.585,461.15,CCCCCCCCCCCCCCCCCCCCCN(C)C
diisopropyl disulfide,150.30916,673.0,0.37,450.15,CCCCCCCCCCCCCCCCCN(C)C
diisopropyl ether,102.17656,500.05,0.339,341.45,CCCCCCCN(C)C
diisopropyl sulfide,118.24316,585.71,0.316,393.19,CCCCCCCCCCCCCCCCN(C)C
diisopropylamine,101.19184,523.1,0.388,357.05,CCCCCCN(C)C
diisopropylbenzene,162.27492,697.15,0.437,473.6,CC(C)CN(C)C
diketene,84.07456,616.0,0.382,399.2,CC(C)N(C)C
dilactic acid,162.1424,660.0,0.907,489.0,-
dimethoxydimethylsilane,120.22358,524.0,0.263,354.55,CCCCCCCCCCCCCCCCCCCN(C)C
dimethyl carbonate,90.07884,548.0,0.385,363.4,CCCCCCCCCN(C)C
"dimethyl cyclohexane-1,4-dicarboxylate; (cis+trans)",200.23464,736.0,0.641,539.15,CCCCCCCCCCCCCCCCCCN(C)C
dimethyl disulfide,94.20164,615.0,0.206,382.9,CCCCCCCCN(C)C
dimethyl ether,46.06904,400.1,0.2,248.31,CCCCCCCCCCCCCCCN(C)C
dimethyl isophthalate,194.187,719.0,0.655,523.0,CCCCCN(C)C
dimethyl maleate,144.12712,675.0,0.562,478.15,CCCCCCCCCCCCCCN(C)C
dimethyl phenol,122.1668,713.62,0.513,411.65,CCCCCCCCCCCCCCCCCCCCCCCN(C)C
dimethyl phthalate,194.187,766.0,0.657,556.85,CCCCCCCCCCCCCN(C)C
dimethyl silane,60.17102,402.0,0.13,253.55,CCCCCCCCCCCN(C)C
dimethyl succinate,146.143,657.0,0.622,469.35,CCCCCCCCCSSCCCCCCCCC
dimethyl sulfate,126.13324,716.0,0.439,462.15,CCCCCCCCCOCCCCCCCCC
dimethyl sulfide,62.13564,503.04,0.194,310.48,CCCCCCCCCOC(=O)c1ccccc1C(=O)OCCCCCCCCC
dimethyl sulfoxide,78.13504,729.0,0.281,464.0,CCCCCCCCCSCCCCCCCCC
dimethyl terephthalate,194.187,772.0,0.637,561.15,CCCCCCCCCNCCCCCCCCC
"dimethyl-1,1-dimethylpropylamine",115.21872,574.99,0.344,391.15,CCCCCCCCSSCCCCCCCC
"dimethyl-1,2-dimethylpropylamine",115.21872,565.3,0.406,390.5,CCCCCCCCOCCCCCCCC
"dimethyl-2,2-dimethylpropylamine",115.21872,574.03,0.344,390.5,CCCCCCCCSCCCCCCCC
"dimethyl-2,6-naphthalenedicarboxylate",244.24688,883.0,0.685,650.86,CCCCCCCCNCCCCCCCC
dimethyl-2-methylbutylamine,115.21872,561.68,0.406,388.0,CCCCCSSCCCCC
dimethyl-2-pentylamine,115.21872,553.21,0.406,382.15,CCCCCSCCCCC
dimethyl-3-methylbutylamine,115.21872,559.73,0.406,386.65,CCCCCNCCCCC
dimethyl-3-pentylamine,115.21872,563.35,0.406,389.15,O(c1ccccc1)c2ccccc2
dimethyl-propylamine,87.16496,528.0,0.175,339.15,c1ccc(cc1)C#Cc2ccccc2
dimethyl-sec-butylamine,101.19184,542.32,0.361,367.15,N(c1ccccc1)c2ccccc2
dimethyl-tert-butylamine,101.19184,545.31,0.3,363.15,C(c1ccccc1)c2ccccc2
dimethylacetylene,54.09164,473.2,0.239,300.13,CC#CC
dimethylaluminum chloride,92.503879,619.0,0.183,399.15,CCCSSCCC
dimethylamine,45.08432,437.2,0.3,280.03,CCCOCCC
dimethylbutylamine,101.19184,538.0,0.34,367.15,CCCOC(=O)\C=C/C(=O)OCCC
dimethyldecylamine,185.35312,685.3,0.536,508.15,CCCOC(=O)c1ccccc1C(=O)OCCC
dimethyldocosylamine,353.67568,824.83,0.737,673.15,CCCSCCC
dimethyldodecylamine,213.40688,714.5,0.612,544.15,CCC[S](=O)(=O)CCC
dimethyleicosylamine,325.62192,802.46,0.79,652.15,CCOC(C)COC(C)CO
dimethylethanolamine,89.13748,571.82,0.711,407.15,COC(C)COC(C)CO
dimethylethylamine,73.13808,500.0,0.097,310.15,[SiH3][SiH3]
dimethylheneicosylamine,339.6488,813.93,0.767,663.15,-
dimethylheptadecylamine,283.54128,770.6,0.749,617.15,-
dimethylheptylamine,143.27248,630.7,0.404,445.15,[SiH3]O[SiH3]
dimethylhexadecylamine,269.5144,760.9,0.716,603.15,CCC(C)SSC(C)CC
dimethylhexylamine,129.2456,608.7,0.323,418.15,CC(C)CSSCC(C)C
dimethylisobutylamine,101.19184,523.11,0.361,354.15,CCCCCCCCCCCOC(=O)c1ccccc1C(=O)OCCCCCCCCCCC
dimethylisopropylamine,87.16496,511.91,0.317,339.15,CCCCCCCCCCCNCCCCCCCCCCC
"dimethylnaphthalene, isomers",156.22728,776.35,0.424,537.28,C=COC=C
dimethylnonadecylamine,311.59504,791.64,0.804,641.15,CCCCCCCCCCCCCCCCCCCCCC
dimethylnonylamine,171.32624,668.7,0.483,488.15,CCCCCCCCCCCCCCCCCCCCCCN
dimethyloctadecylamine,297.56816,779.7,0.763,629.15,C[Si](C)(C)O[Si](C)(C)O[Si](C)(C)O[Si](C)(C)O[Si](C)(C)C
dimethyloctylamine,157.29936,650.6,0.415,464.15,CCCCCCCCCCCC=O
dimethylpentadecylamine,255.48752,750.5,0.699,590.15,CCCCCCCCCCCC
dimethylpentylamine,115.21872,584.2,0.298,395.15,CCCCCCCCCCCC#N
dimethyltetradecylamine,241.46064,739.4,0.669,575.15,CCCCCCCCCCCC(O)=O
dimethyltricosylamine,367.70256,836.42,0.708,683.15,CCCCCCCCCCCCOC(C)=O
dimethyltridecylamine,227.43376,727.4,0.643,560.15,CCCCCCCCCCCCOC=O
dimethylundecylamine,199.38,700.5,0.57,526.15,CCCCCCCCCCCCN
dinonyl disulfide,318.63172,802.3,0.832,642.16,CCCCCCCCCCCCc1ccccc1
dinonyl ether,270.49912,736.0,1.002,591.0,CCCCCCCCCCCCC1CCCCC1
dinonyl phthalate,418.61708,866.0,0.996,707.0,CCCCCCCCCCCCC1CCCC1
dinonyl sulfide,286.56572,810.53,0.787,625.0,CCCCCCCCCCCCCCCCCCCC=O
dinonylamine,269.5144,761.5,0.891,607.15,CCCCCCCCCCCCCCCCCCCC
dioctyl disulfide,290.57796,784.46,0.806,619.16,CCCCCCCCCCCCCCCCCCCC#N
dioctyl ether,242.44536,707.0,0.934,559.65,CCCCCCCCCCCCCCCCCCCC(O)=O
dioctyl sulfide,258.51196,760.0,0.88,601.0,CCCCCCCCCCCCCCCCCCCCN
dioctylamine,241.46064,734.0,0.819,580.81,CCCCCCCCCCCCCCCCCCCCc1ccccc1
dipentyl disulfide,206.41668,726.94,0.614,537.06,CCCCCCCCCCCCCCCCCCCCC1CCCCC1
dipentyl sulfide,174.35068,701.03,0.551,500.0,CCCCCCCCCCCCCCCCCCCCC1CCCC1
dipentylamine,157.29936,639.0,0.677,476.15,O=C1CCCCCN1
diphenyl ether,170.2108,766.8,0.439,531.46,O=C1CCCCCO1
diphenylacetylene,178.2334,832.0,0.384,573.0,C1=CC=C(C=C1)C#CC2=CC=CC=C2
diphenylamine,169.22608,817.0,0.53,575.15,CC
diphenylmethane,168.23828,760.0,0.482,537.42,CC[S](Cl)(=O)=O
"diphenylmethane-4,4'-diisocyanate",250.25668,802.0,0.95,609.0,CCOC(=O)C(C)(C)C
dipropyl disulfide,150.30916,675.0,0.437,469.0,CCOC(=O)C=CC
dipropyl ether,102.17656,530.6,0.369,363.23,CCCCC(CC)C(=O)OCC
dipropyl maleate,200.23464,691.0,0.782,521.0,CCCOC(=O)/C=C\C(=O)OCCC
dipropyl phthalate,250.29452,768.0,0.855,590.65,CCOC(=O)C(C)CC
dipropyl sulfide,118.24316,608.0,0.374,415.98,CCOC(=O)CC=C
dipropyl sulfone,150.24196,763.0,0.582,543.0,CCOC(=O)C=C(C)C
dipropylene glycol monoethyl ether,162.22912,617.0,0.931,471.0,CCCC(C)CC(=O)OCC
dipropylene glycol monomethyl ether,148.20224,612.0,0.88,461.45,CCCCCCC(C)CC(=O)OCC
disilane,62.21864,432.0,0.0939,259.0,CCOC(=O)CCC(C)CC
"disilane, hexachloro",268.8872,660.96,0.035,418.15,CCOC(=O)CCC(C)C
"disilane, hexafluoro",170.1614192,411.33,0.022,254.25,CCOC(C)=O
disiloxane,78.21804,416.86,0.078,257.95,CCO
"disulfide, bis(1-methylpropyl)",178.36292,704.16,0.529,513.34,CCCCOCC
"disulfide, bis(2-methylpropyl)",178.36292,704.16,0.529,493.0,CCCCSCC
diundecyl phthalate,474.7246,970.0,0.747,783.0,CCCl
diundecylamine,325.62192,804.24,0.8,655.15,CCOC(=O)CCl
divinyl ether,70.09104,463.0,0.291,301.45,CCOC(Cl)=O
docosane,310.60724,787.0,0.972,641.75,CCOC(=O)\C=C/C
docosylamine,325.62192,834.97,0.821,680.15,CCOC(=O)CC#N
dodecamethylpentasiloxane,384.84294,628.4,0.726,503.0,CCCCCCCCCC(=O)OCC
dodecanal,184.32196,708.0,0.675,523.15,CCCCCCCCCCSCC
dodecane,170.33844,658.0,0.576,489.47,CCCCCCCCCCCCSCC
dodecanenitrile,181.32136,720.09,0.72,550.15,CCOC(O)CC
dodecanoic acid,200.32136,743.0,0.88,571.85,CCF
dodecyl acetate,228.37512,720.3,1.006,538.15,CCOC=O
dodecyl formate,214.34824,713.2,0.798,554.36,CCCCCCCCCCCCCCCCCSCC
dodecylamine,185.35312,696.0,0.764,532.35,CCCCCCC(=O)OCC
dodecylbenzene,246.4362,780.0,0.733,600.76,CCCCCCCOCC
dodecylcyclohexane,252.48384,772.83,0.675,600.86,CCCCCCCSCC
dodecylcyclopentane,238.45696,755.17,0.669,584.06,CCCCCCCCCCCCCCCCSCC
eicosanal,296.537,784.21,0.856,634.15,CCCCCC(=O)OCC
eicosane,282.55348,768.0,0.907,616.93,CCCCCCOCC
eicosanenitrile,293.5364,813.13,0.829,659.15,CCCCCCSCC
eicosanoic acid,312.5364,821.0,1.087,670.15,CCI
eicosylamine,297.56816,794.6,0.98,656.15,CCOC(=O)C(C)C
eicosylbenzene,358.65124,851.65,0.759,693.15,CCOCC(C)C
eicosylcyclohexane,364.69888,853.38,0.708,695.15,CCN=C=O
eicosylcyclopentane,350.672,839.72,0.729,683.15,CC[N+]#[C-]
epsilon-caprolactam,113.15948,806.0,0.476,543.15,CCOCCC(C)C
epsilon-caprolactone,114.1442,771.0,0.442,514.0,CCOC(C)C
"erythro-4,4-dimethyl-2,3-pentanediol",132.20284,710.3,1.107,539.81,CCC(=O)C(C)C
ethane,30.06964,305.32,0.1,184.55,CCOC(=O)CC(C)C
ethanesulfonyl chloride,128.5792,682.0,0.369,448.49,CCOC(=O)C(C)O
"ethyl 2,2-dimethylpropanoate",130.18696,580.5,0.562,391.55,CCS
ethyl 2-butenoate,114.1442,569.0,0.434,409.65,CCOC(=O)C(C)=C
ethyl 2-ethylhexanoate,172.2676,637.0,0.579,473.73,CCO[S](=O)(=O)OC
"ethyl 2-methylbutanoate, (+)",130.18696,584.0,0.456,405.15,CCCCCCCCC(=O)OCC
ethyl 2-methylbutyrate,130.18696,587.95,0.407,405.9,CCCCCCCCCSCC
ethyl 3-butenoate,114.1442,569.0,0.434,392.15,CCCCCCCCCCCCCCCCCCSCC
ethyl 3-methyl-2-butenoate,128.17108,592.33,0.432,426.65,CCCCCCCC(=O)OCC
ethyl 3-methylhexanoate,158.24072,629.0,0.596,450.15,CCCCCCCCOCC
ethyl 3-methylnonanoate,200.32136,667.0,0.699,523.39,CCCCCCCCSCC
ethyl 4-methylhexanoate,158.24072,629.0,0.596,453.15,CCCCCCCCCCCCCCCSCC
ethyl 4-methylpentanoate,144.21384,602.0,0.395,436.15,CCCCC(=O)OCC
ethyl acetate,88.10632,523.3,0.366,350.21,CCCCCOCC
ethyl acrylate,100.11732,553.0,0.378,372.65,CCCCCSCC
ethyl alcohol,46.06904,513.92,0.645,351.44,CCOC(=O)CC
ethyl benzoate,150.1772,698.0,0.477,486.55,CCOC=CC
ethyl butanoate,116.16008,571.0,0.401,394.65,CCCOCC
ethyl butyl ether,102.17656,531.0,0.385,365.35,CCCSCC
ethyl butyl sulfide,118.24316,609.0,0.374,417.41,CCOC(C)CC
ethyl chloride,64.5144,460.35,0.19,285.42,CCO[S]([O-])(=O)=O
ethyl chloroacetate,122.55108,618.0,0.393,417.35,CCOC(C)(C)C
ethyl chloroformate,108.5242,508.15,0.835,366.0,CCCCCCCCCCCCCCSCC
ethyl cis-2-butenoate,114.1442,569.0,0.434,409.15,CCOC(=O)\C=C\C
ethyl cyanoacetate,113.11612,679.0,0.558,479.15,CCOC(=O)C(/C)=C/C
ethyl decanoate,200.32136,667.0,0.699,514.65,CCCCCCCCCCCCCSCC
ethyl decyl sulfide,202.40444,733.68,0.631,537.0,CCCCCCCCCCC(=O)OCC
ethyl dodecyl sulfide,230.4582,762.23,0.7,569.0,CCCCCCCCCCCSCC
ethyl ether of propylene glycol,104.14908,582.0,0.783,444.01,CCOc1cc(C=O)ccc1O
ethyl fluoride,48.0601032,375.31,0.22,235.45,CCOC=C
ethyl formate,74.07944,508.4,0.285,327.46,CCOCCC(=O)OCC
ethyl heptadecyl sulfide,300.5926,821.75,0.794,635.0,CCNC(C)CC
ethyl heptanoate,158.24072,629.0,0.596,460.15,CCNC(C)(C)C
ethyl heptyl ether,144.2572,592.67,0.508,439.15,CCCC(=O)CC([O-])=O
ethyl heptyl sulfide,160.3238,681.56,0.508,480.0,CCC#C
ethyl hexadecyl sulfide,286.56572,810.53,0.787,625.0,CCN
ethyl hexanoate,144.21384,602.0,0.395,440.15,CCc1ccccc1
ethyl hexyl ether,130.23032,583.0,0.494,417.15,CCc1ccccc1.O[O-]
ethyl hexyl sulfide,146.29692,660.72,0.465,460.0,CCCCNCC
ethyl iodide,155.96617,561.0,0.224,345.45,CCC1CCC1
ethyl isobutanoate,116.16008,553.15,0.426,383.0,CCC1CCCCC1
ethyl isobutyl ether,102.17656,520.57,0.359,354.25,CCC1CCCC1
ethyl isocyanate,71.07884,526.0,0.255,333.15,CCC1CC1
ethyl isocyanide,55.07944,535.33,0.338,351.65,CCCCCCCCCCNCC
ethyl isopentyl ether,116.20344,558.21,0.307,385.65,CCCCCCCCCCCCCCCCCCCCCCNCC
ethyl isopropyl ether,88.14968,489.0,0.306,326.15,CCCCCCCCCCCCNCC
ethyl isopropyl ketone,100.16068,567.0,0.389,386.55,CCCCCCCCCCCCCCCCCCCCNCC
ethyl isovalerate,130.18696,587.95,0.4,407.45,C=C
ethyl lactate,118.1326,588.0,0.793,427.65,O=C1OCCO1
ethyl mercaptan,62.13564,499.15,0.188,308.15,OCCO
ethyl methacrylate,114.1442,577.0,0.344,390.15,CC(O)=O.CC(O)=O.OCCO
ethyl methyl sulfate,140.16012,775.0,0.126,472.42,OCCO.OC(=O)C=C.OC(=O)C=C
ethyl nonanoate,186.29448,652.0,0.639,500.15,CCOCCOCC
ethyl nonyl sulfide,188.37756,717.91,0.592,520.0,OCCO.O[N+]([O-])=O.O[N+]([O-])=O
ethyl octadecyl sulfide,314.61948,832.33,0.795,645.0,CCC(C)OCCO
ethyl octanoate,172.2676,637.0,0.579,481.65,CCCCCCOCCO
ethyl octyl ether,158.28408,622.0,0.601,459.45,CC(=C)C(O)=O.OCCO
ethyl octyl sulfide,174.35068,700.0,0.538,505.54,CCCOCCO
ethyl pentadecyl sulfide,272.53884,798.63,0.774,611.0,C1CO1
ethyl pentanoate,130.18696,587.95,0.407,419.25,C1CS1
ethyl pentyl ether,116.20344,558.21,0.307,390.75,NCCN
ethyl pentyl sulfide,132.27004,638.37,0.42,440.0,C1CN1
ethyl propanoate,102.1332,546.0,0.394,372.25,CCCCCCCCCCCCCCCCCCCCCNCC
ethyl propenyl ether,86.1338,505.58,0.323,343.15,CCCCCCCCCCCCCCCCCNCC
ethyl propyl ether,88.14968,500.23,0.346,337.01,CCCCCCCNCC
ethyl propyl sulfide,104.21628,584.0,0.329,391.65,CCCCCCCCCCCCCCCCNCC
ethyl sec-butyl ether,102.17656,520.72,0.359,354.35,CCCCCCNCC
ethyl sulfate,126.13324,857.0,0.494,553.15,CC(OC(C)=O)OC(C)=O
ethyl tert-butyl ether,102.17656,514.0,0.296,345.95,CC=C1CC2CC1C=C2
ethyl tetradecyl sulfide,258.51196,791.68,0.686,597.0,CCNCC(C)C
ethyl trans-2-butenoate,114.1442,569.0,0.434,411.15,CCNC(C)C
ethyl trans-2-methyl-2-butenoate,128.17108,592.33,0.432,429.15,CCCCCCCCCCCCCCCCCCCNCC
ethyl tridecyl sulfide,244.48508,775.15,0.729,583.0,CCCCCCCCCNCC
ethyl undecanoate,214.34824,682.0,0.759,542.21,CCCCCCCCCCC(=O)OCC
ethyl undecyl sulfide,216.43132,748.42,0.667,553.0,CCCCCCCCCCCCCCCCCCNCC
ethyl vanillin,166.1766,748.0,1.073,567.0,CCCCCCCCNCC
ethyl vinyl ether,72.10692,475.15,0.267,308.7,CCCCCCCCCCCCCCCNCC
ethyl-3-ethoxypropionate,146.18636,621.0,0.497,441.65,CCCCCNCC
ethyl-sec-butylamine,101.19184,538.12,0.432,371.15,CCCNCC
ethyl-tert-butylamine,101.19184,517.03,0.369,351.15,CCCCCCCCCCCCCCNCC
ethylacetoacetate,130.1436,643.0,0.561,453.95,CCCCCCCCCCCCCCCCCCCCCCCNCC
ethylacetylene,54.09164,443.2,0.247,281.22,CCCCCCCCCCCCCNCC
ethylamine,45.08432,456.15,0.285,289.73,CCCCCCCCCCCNCC
ethylbenzene,106.1674,617.15,0.304,409.35,C#Cc1ccccc1
ethylbenzene hydroperoxide,138.1662,737.0,0.813,536.0,-
ethylbutylamine,101.19184,548.52,0.463,381.15,c1ccc2c(c1)c3cccc4cccc2c34
ethylcyclobutane,84.16128,528.1,0.256,343.75,C1c2ccccc2c3ccccc13
ethylcyclohexane,112.21504,609.15,0.246,404.95,[F]
ethylcyclopentane,98.18816,569.5,0.27,376.62,[O-][F+]
ethylcyclopropane,70.1344,480.93,0.242,309.08,Fc1ccccc1
ethyldecylamine,185.35312,677.7,0.696,514.15,FC(F)F
ethyldocosylamine,353.67568,830.33,0.732,678.15,C=O
ethyldodecylamine,213.40688,707.4,0.776,549.15,NC=O
ethyleicosylamine,325.62192,806.7,0.8,657.15,O=CNc1ccccc1
ethylene,28.05376,282.34,0.086,169.47,OC=O
ethylene carbonate,88.06296,806.0,0.442,521.35,OC(=O)/C=C/C(O)=O
ethylene glycol,62.06844,720.0,0.507,470.45,o1cccc1
ethylene glycol diacetate,146.143,653.0,0.56,463.65,O=Cc1occc1
ethylene glycol diacrylate,170.165,689.0,0.662,503.0,OCc1occc1
ethylene glycol diethyl ether,118.17596,561.0,0.482,394.55,[Cl-].[Cl-].[Cl-].[Ga+3]
ethylene glycol dinitrate,152.06364,654.0,0.79,472.15,O=C1CCCO1
ethylene glycol mono-sec-butyl ether,118.17596,600.0,0.817,481.98,CC(C)C1=CCC(=CC1)C
ethylene glycol monohexyl ether,146.22972,633.0,0.9,481.45,[GeH4]
ethylene glycol monomethacrylate,130.1436,677.0,0.839,499.15,CC(=C)C(=O)OCCO
ethylene glycol monopropyl ether,104.14908,615.2,0.486,424.5,Br[GeH2]Br
ethylene oxide,44.05316,469.15,0.197,283.6,Cl[GeH2]Cl
ethylene sulfide,60.11976,547.0,0.161,328.08,OC(=O)CCCC(O)=O
ethylenediamine,60.099,593.0,0.472,390.41,O=C1CCCC(=O)O1
ethyleneimine,43.06844,537.0,0.201,329.0,N#CCCCC#N
ethylheneicosylamine,339.6488,818.78,0.77,668.15,OCC(O)CO
ethylheptadecylamine,283.54128,764.7,0.941,621.15,CCCCCCCC\C=C/CCCCCCCC(=O)OCC(O)CO
ethylheptylamine,143.27248,622.2,0.575,453.85,CC([O-])=O.CC([O-])=O.CC(=O)OCC(O)CO
ethylhexadecylamine,269.5144,754.8,0.907,608.15,OCC(O)=O
ethylhexylamine,129.2456,599.8,0.535,431.15,O=CC=O
ethylidene diacetate,146.143,635.0,0.478,442.15,COc1ccccc1O
ethylidene norbornene,120.19428,629.0,0.314,420.67,FC(F)(F)C(Cl)Br
ethylisobutylamine,101.19184,538.12,0.432,371.15,CCCCCCCCCCCCCCCCCCCCC
ethylisopropylamine,87.16496,513.8,0.403,349.15,CCCCCCCCCCCCCCCCCCCCC#N
ethylnonadecylamine,311.59504,795.27,0.822,646.15,CCCCCCCCCCCCCCCCCCCCCN
ethylnonylamine,171.32624,660.8,0.657,495.15,CCCCCCCCCCCCCCCCCCCCCc1ccccc1
ethylnorbene,122.21016,625.0,0.261,416.75,CCCCCCCCCCCCCCCCCCCCCC1CCCC1
ethyloctadecylamine,297.56816,773.9,0.981,634.15,CCCCCCCCCCCCCCCCC=O
ethyloctylamine,157.29936,642.4,0.616,475.15,CCCCCCCCCCCCCCCCC
ethylpentadecylamine,255.48752,744.2,0.891,595.15,CCCCCCCCCCCCCCCCC#N
ethylpentylamine,115.21872,575.0,0.496,407.15,CCCCCCCCCCCCCCCCC(O)=O
ethylpropylamine,87.16496,520.0,0.393,353.45,CCCCCCCCCCCCCCCCCO
ethyltetradecylamine,241.46064,732.8,0.848,580.15,CCCCCCCCCCCCCCCCCN
ethyltricosylamine,367.70256,842.59,0.708,688.15,CCCCCCCCCCCCCCCCCc1ccccc1
ethyltridecylamine,227.43376,720.6,0.811,565.15,CCCCCCCCCCCCCCCCCC1CCCCC1
ethylundecylamine,199.38,693.1,0.738,532.15,CCCCCCCCCCCCCCCCCC1CCCC1
ethynylbenzene,102.13564,650.0,0.226,416.0,FC(F)C(F)(F)C(F)(F)F
ferric chloride,162.2051,948.15,0.1741,592.15,CCCCCCC
fluoranthene,202.2554,905.0,0.588,655.95,CCCCCCC#N