name,molweight,critical temperature (K),acentric factor,boiling point (K),SMILES
"2,4,6-trimethylaniline",135.20896,705.58,0.413,505.65,Cc1cc(cc(c1O)C(C)(C)C)C(C)(C)C
"2,4,6-trimethylheptane",142.28468,590.3,0.411,420.76,CC(C)(C)c1ccc(O)c(c1)C(C)(C)C
"2,4,6-trimethylnonane",170.33844,633.44,0.491,465.15,CC(Br)CC(C)Br
"2,4,6-trimethyloctane",156.31156,618.37,0.449,447.15,CC(C)(Cl)CC(C)(C)Cl
"2,4,6-trimethylphenol",136.19368,716.46,0.494,493.95,FC(F)(F)c1ccc(Cl)cc1Cl
"2,4,6-trimethylpyridine",121.18208,653.0,0.375,443.7,ClCc1ccc(Cl)cc1Cl
"2,4,6-trinitrotoluene",227.13332,828.0,0.897,625.0,CC(Cl)CC(C)Cl
"2,4,7-trimethylnonane",170.33844,636.16,0.491,467.15,Cc1ccc(Cl)cc1Cl
"2,4,7-trimethyloctane",156.31156,614.22,0.449,444.15,CCc1ccc(O)c(CC)c1
"2,4,8-trimethylnonane",170.33844,632.08,0.491,464.15,CC(F)CC(C)F
"2,4-bis(1-methylethyl)phenol",178.27432,755.67,0.59,524.28,CC(I)CC(C)I
"2,4-di-tert-butyl-5-methylphenol",220.35496,738.5,0.793,555.15,CSc1ccc(C)cc1C
"2,4-di-tert-butyl-6-methylphenol",220.35496,738.5,0.793,542.15,CCc1c(C)cc(C)c2ccccc12
"2,4-di-tert-butylphenol",206.32808,765.0,0.631,536.65,CCC(C)CC(C)CO
"2,4-dibromopentane",229.9424,673.87,0.448,455.15,CCC(C)CC(C)=C
"2,4-dichloro-2,4-dimethylpentane",169.09356,654.02,0.442,454.15,CC(C)CC(C)CO
"2,4-dichlorobenzotrifluoride",215.0014296,646.0,0.434,450.65,C1=CC(=C(C=C1Cl)Cl)C(F)(F)F
"2,4-dichlorobenzyl chloride",195.4748,737.0,0.26,521.15,CC(C)CC(C)=C
"2,4-dichloropentane",141.0398,628.96,0.323,422.15,CCC(C)c1ccc(C)cc1C
"2,4-dichlorotoluene",161.03004,705.0,0.359,474.25,CC(C)C(O)C(C)(C)O
"2,4-diethylphenol",150.22056,714.21,0.541,501.15,CC(C)(O)CC(C)(C)O
"2,4-difluoropentane",108.1312064,491.0,0.321,330.0,CCC(C)(CO)CC(C)C
"2,4-diiodopentane",323.94334,750.13,0.302,499.2,CCCC(C)CC(C)(C)O
"2,4-dimethyl-(1-thiaethyl)-benzene",152.26028,743.84,0.415,510.74,CCC(C)CC(C)(C)O
"2,4-dimethyl-1-ethylnaphthalene",184.28104,811.44,0.536,585.41,CCC(C)C=C(C)C
"2,4-dimethyl-1-hexanol",130.23032,605.36,0.773,448.15,CCCCC(C)CC(C)(C)O
"2,4-dimethyl-1-hexene",112.21504,561.06,0.332,384.35,CC(C)CC(C)(C)N
"2,4-dimethyl-1-pentanol",116.20344,592.4,0.731,432.15,CC(C)CC(C)(C)O
"2,4-dimethyl-1-pentanol, (±)",116.20344,587.2,0.709,432.15,CC(C)C=C(C)C
"2,4-dimethyl-1-pentene",98.18816,528.74,0.288,354.76,CCC(C)C(CC)(CC)C(C)C
"2,4-dimethyl-1-sec-butylbenzene",162.27492,697.15,0.437,481.77,CCC(CC)(C(C)C)C(C)C
"2,4-dimethyl-2,3-pentanediol",132.20284,604.17,1.107,459.15,CCC(C(C)C)C(C)(CC)CC
"2,4-dimethyl-2,4-pentanediol",132.20284,621.29,1.069,470.0,CCC(C(C)C)(C(C)C)C(C)C
"2,4-dimethyl-2-ethyl-1-pentanol",144.2572,620.9,0.748,461.15,CCC(O)(C(C)C)C(C)C
"2,4-dimethyl-2-heptanol",144.2572,612.62,0.748,455.0,CCCC(C)C(CC)C(C)C
"2,4-dimethyl-2-hexanol",130.23032,578.98,0.706,423.85,CCCCC(C)C(CC)C(C)C
"2,4-dimethyl-2-hexene",112.21504,562.1,0.322,383.75,CCC(C(C)C)C(C)C
"2,4-dimethyl-2-octanol",158.28408,644.39,0.788,485.0,CCc1c(C)ccc(O)c1C
"2,4-dimethyl-2-pentanamine",115.21872,565.35,0.409,395.15,CCC(C)C(O)C(C)C
"2,4-dimethyl-2-pentanol",116.20344,563.54,0.662,406.15,CC(C)C(O)(C(C)C)C(C)C
"2,4-dimethyl-2-pentene",98.18816,533.21,0.278,356.45,CCCC(C)C(C(C)C)C(C)C
"2,4-dimethyl-3,3-diethylhexane",170.33844,651.92,0.432,473.15,CCC(C)C(C(C)C)C(C)C
"2,4-dimethyl-3,3-diethylpentane",156.31156,647.25,0.391,462.15,CC(C)C(C(C)C)C(C)C
"2,4-dimethyl-3,4-diethylhexane",170.33844,651.92,0.432,473.15,CC(C)C(O)C(C)C
"2,4-dimethyl-3-ethyl-3-isopropylpentane",170.33844,664.26,0.404,479.15,CC(C)C(=O)C(C)C
"2,4-dimethyl-3-ethyl-3-pentanol",144.2572,610.61,0.716,451.05,CCCC(O)(C(C)C)C(C)C
"2,4-dimethyl-3-ethylheptane",156.31156,625.29,0.449,452.15,CCC(C)(CC)C(O)C(C)C
"2,4-dimethyl-3-ethyloctane",170.33844,640.25,0.491,470.15,CCCC(C)(CC)CC(C)C
"2,4-dimethyl-3-ethylpentane",128.2578,591.0,0.353,409.87,CCCCC(C)(CC)CC(C)C
"2,4-dimethyl-3-ethylphenol",150.22056,733.03,0.54,515.0,CCCC(C)(O)CC(C)C
"2,4-dimethyl-3-hexanol",130.23032,588.35,0.741,433.15,CCCC(C)(CC(C)C)C(C)C
"2,4-dimethyl-3-isopropyl-3-pentanol",158.28408,626.57,0.728,467.65,CCCCC(C)(O)CC(C)C
"2,4-dimethyl-3-isopropylheptane",170.33844,637.13,0.462,465.15,CCCC(C)(CCC)CC(C)C
"2,4-dimethyl-3-isopropylhexane",156.31156,623.65,0.421,448.15,CCC(CC)C(C)CC(C)C
"2,4-dimethyl-3-isopropylpentane",142.28468,614.4,0.365,430.2,CCCC(CC)C(C)CC(C)C
"2,4-dimethyl-3-pentanol",116.20344,568.11,0.697,411.95,CCc1cc(O)c(C)cc1C
"2,4-dimethyl-3-pentanone",114.18756,576.0,0.405,397.55,CCC(CC)CC(C)CC(C)C
"2,4-dimethyl-3-propyl-3-pentanol",158.28408,610.43,0.757,457.15,CCc1cc(C)cc(C)c1O
"2,4-dimethyl-4-ethyl-3-hexanol",158.28408,614.24,0.757,460.0,-
"2,4-dimethyl-4-ethylheptane",156.31156,616.64,0.419,443.15,-
"2,4-dimethyl-4-ethyloctane",170.33844,635.7,0.461,464.15,Cc1ccc(N)c(C)c1
"2,4-dimethyl-4-heptanol",144.2572,598.55,0.748,444.55,Cc1ccc(c(C)c1)c2ccccc2
"2,4-dimethyl-4-isopropylheptane",170.33844,640.89,0.432,465.15,CCCCCCC(C)CC(C)C
"2,4-dimethyl-4-octanol",158.28408,616.49,0.788,464.0,CCCCCCCCC(C)CC(C)C
"2,4-dimethyl-4-propylheptane",170.33844,632.97,0.461,462.15,Cc1occ(C)c1
"2,4-dimethyl-5-ethylheptane",156.31156,621.14,0.449,449.15,CCCCCCCCCCCCCC(C)CC(C)C
"2,4-dimethyl-5-ethyloctane",170.33844,634.8,0.491,466.15,CCCC(C)CC(C)C
"2,4-dimethyl-5-ethylphenol",150.22056,733.24,0.54,515.15,CCCCCCCCCCCCC(C)CC(C)C
"2,4-dimethyl-6-ethyloctane",170.33844,633.44,0.491,465.15,CCC(C)CC(C)C
"2,4-dimethyl-6-ethylphenol",150.22056,711.89,0.54,500.15,CCCCCC(C)CC(C)C
"2,4-dimethyl-cis-3-hexene",112.21504,559.76,0.322,382.15,CCCCCCCCCCCCCCC(C)CC(C)C
"2,4-dimethyl-trans-3-hexene",112.21504,557.71,0.322,380.75,CCCCC(C)CC(C)C
"2,4-dimethylaniline",121.18208,695.58,0.433,487.15,CCCCCCCCCCCC(C)CC(C)C
"2,4-dimethylbiphenyl",182.26516,792.44,0.458,545.15,CC(C)CC(C)C
"2,4-dimethyldecane",170.33844,640.72,0.519,473.15,Cc1ccnc(C)c1
"2,4-dimethyldodecane",198.3922,668.89,0.595,507.15,Cc1cc(C)c2ccccc2n1
"2,4-dimethylfuran",96.12892,560.17,0.332,368.15,CCCCCCCCCCC(C)CC(C)C
"2,4-dimethylheptadecane",268.5266,730.99,0.722,581.15,CC1COC(C)C1
"2,4-dimethylheptane",128.2578,576.8,0.39,406.05,Cc1scc(C)c1
"2,4-dimethylhexadecane",254.49972,720.01,0.706,568.15,Cc1ccc(S)c(C)c1
"2,4-dimethylhexane",114.23092,553.5,0.344,382.58,CCCCCCCCCC(C)CC(C)C
"2,4-dimethylnonane",156.31156,620.12,0.478,451.15,CCCCCCCC(C)CC(C)C
"2,4-dimethyloctadecane",282.55348,742.46,0.732,594.15,Cc1ccc(cc1[N+]([O-])=O)[N+]([O-])=O
"2,4-dimethyloctane",142.28468,600.0,0.435,429.05,CC(C)(CC(=C)c1ccccc1)c2ccccc2
"2,4-dimethylpentadecane",240.47284,708.24,0.685,554.15,CC=CC=CC
"2,4-dimethylpentane",100.20404,519.8,0.302,353.64,Cc1ccc(O)c(C)c1
"2,4-dimethylpyridine",107.1552,647.0,0.364,431.55,CCC(C)C(C)(C)CCC(C)C
"2,4-dimethylquinoline",157.21508,776.4,0.497,540.36,CC(C)(C)CCC(C)(C)O
"2,4-dimethyltetradecane",226.44596,695.62,0.659,539.15,CCC(CC(C)(C)CC)C(C)C
"2,4-dimethyltetrahydrofuran",100.16068,564.54,0.282,370.75,CC(C)C(O)CC(C)(C)C
"2,4-dimethylthiophene",112.19552,634.0,0.297,413.85,CCC(CC(C)C)C(C)(C)CC
"2,4-dimethylthiophenol",138.2334,718.58,0.373,481.15,CCC(C)(C)CCC(C)C
"2,4-dimethyltridecane",212.41908,683.39,0.629,524.15,CCCCC(C)(C)CCC(C)C
"2,4-dimethylundecane",184.36532,653.35,0.558,489.15,CCCC(C)(C)CCC(C)C
"2,4-dinitrotoluene",182.13572,814.0,0.713,590.0,CCC(C)(C)C(C)CCC(C)C
"2,4-diphenyl-4-methyl-1-pentene",236.3568,835.0,0.547,614.0,CC(C)C(C)CCC(C)(C)O
"2,4-hexadiene",82.1454,526.51,0.25,353.15,CCCC(C)C(C)CCC(C)C
"2,4-xylenol",122.1668,707.65,0.514,484.13,CCC(C)C(C)CCC(C)C
"2,5,5,6-tetramethyloctane",170.33844,643.65,0.432,467.15,CCC(C)CC(C)CCC(C)C
"2,5,5-trimethyl-2-hexanol",144.2572,634.35,0.682,466.0,CC(C)CCC(C)CCC(C)C
"2,5,5-trimethyl-3-ethylheptane",170.33844,638.14,0.432,463.15,CC(Br)CCC(C)Br
"2,5,5-trimethyl-3-hexanol",144.2572,598.36,0.716,442.0,-
"2,5,5-trimethyl-4-ethylheptane",170.33844,640.89,0.432,465.15,CC(C)(Cl)CCC(C)(C)Cl
"2,5,5-trimethylheptane",142.28468,602.9,0.383,425.96,C[C@@H](Cl)CC[C@@H](C)Cl
"2,5,5-trimethylnonane",170.33844,634.33,0.461,463.15,Cc1cc(Cl)ccc1Cl
"2,5,5-trimethyloctane",156.31156,619.43,0.419,445.15,CCc1ccc(CC)c(O)c1
"2,5,6,6-tetramethyloctane",170.33844,646.41,0.432,469.15,C1OCC=C1
"2,5,6-trimethyl-2-heptanol",158.28408,622.45,0.757,466.15,CSc1cc(C)ccc1C
"2,5,6-trimethylnonane",170.33844,638.89,0.491,469.15,CC(=C)CCC(C)=C
"2,5,6-trimethyloctane",156.31156,623.9,0.449,451.15,CC(C)CCC(C)CO
"2,5,7-trimethylnonane",170.33844,636.16,0.491,467.15,CC(C)CCC(C)=C
"2,5,8-trimethylnonane",170.33844,633.44,0.491,465.15,CC(C)=CC=C(C)C
"2,5-dibromohexane",243.96928,684.21,0.526,481.15,CC(C)(CCC(C)(C)c1ccccc1)c2ccccc2
"2,5-dibromohexane, (R*,R**)-(±)-",243.96928,684.21,0.526,486.03,CCC(C)CCC(C)(C)O
"2,5-dichloro-2,5-dimethylhexane",183.12044,672.06,0.485,491.48,CC(C)CCC(C)(C)O
"2,5-dichlorohexane, (R*,R*)-(±)-",155.06668,633.09,0.397,450.15,CC(C)CC=C(C)C
"2,5-dichlorotoluene",161.03004,710.0,0.343,473.15,CCC(CC)(CC(C)C)C(C)C
"2,5-diethylphenol",150.22056,712.57,0.541,500.0,CCC(C(C)C)C(CC)C(C)C
"2,5-dihydrofuran",70.09104,542.0,0.22,339.0,CCC(C)CC(CC)C(C)C
"2,5-dimethyl-(1-thiaethyl)-benzene",152.26028,743.84,0.415,510.74,CCc1cc2c(C)cccc2cc1C
"2,5-dimethyl-1,5-hexadiene",110.19916,567.0,0.324,387.45,CCCC(C)CC(CC)C(C)C
"2,5-dimethyl-1-hexanol",130.23032,610.77,0.773,452.15,CCc1cc(C)cc(O)c1C
"2,5-dimethyl-1-hexene",112.21504,561.65,0.332,384.75,CC(C)CC(O)C(C)C
"2,5-dimethyl-2,4-hexadiene",110.19916,597.0,0.322,408.41,CC(C)CC(=O)C(C)C
"2,5-dimethyl-2,5-diphenylhexane",266.42644,810.0,0.698,619.15,CCC(C)CC(C(C)C)C(C)C
"2,5-dimethyl-2-heptanol",144.2572,612.62,0.748,455.0,CC(C)CC(C(C)C)C(C)C
"2,5-dimethyl-2-hexanol",130.23032,581.44,0.706,425.65,CCC(C)C(CC)CC(C)C
"2,5-dimethyl-2-hexene",112.21504,564.45,0.322,385.35,CCCC(C)C(CC)CC(C)C
"2,5-dimethyl-3,3-diethylhexane",170.33844,638.14,0.432,463.15,CCc1cc(C)c(O)cc1C
"2,5-dimethyl-3,4-diethylhexane",170.33844,634.39,0.462,463.15,CCC(C)C(CC(C)C)C(C)C
"2,5-dimethyl-3-ethylheptane",156.31156,621.14,0.449,449.15,CCCC(C)C(O)CC(C)C
"2,5-dimethyl-3-ethylnaphthalene",184.28104,811.44,0.536,585.41,CCCC(CC(C)C)C(C)CC
"2,5-dimethyl-3-ethyloctane",170.33844,636.16,0.491,467.15,CCC(C)(CC)CCC(C)C
"2,5-dimethyl-3-ethylphenol",150.22056,711.68,0.54,500.0,CCCC(C)(CC)CCC(C)C
"2,5-dimethyl-3-hexanol",130.23032,587.0,0.741,432.15,CCC(CC)C(C)CCC(C)C
"2,5-dimethyl-3-hexanone",128.21444,624.0,0.528,420.65,CCc1c(C)ccc(C)c1O
"2,5-dimethyl-3-isopropylheptane",170.33844,634.39,0.462,463.15,CC(C)\C=C/C(C)C
"2,5-dimethyl-3-isopropylhexane",156.31156,616.7,0.421,443.15,CC(C)\C=C\C(C)C
"2,5-dimethyl-4-ethylheptane",156.31156,619.75,0.449,448.15,Cc1ccc(C)c(N)c1
"2,5-dimethyl-4-ethyloctane",170.33844,633.44,0.491,465.15,Cc1ccc(C)c(c1)c2ccccc2
"2,5-dimethyl-4-ethylphenol",150.22056,711.68,0.54,500.0,CCCCCC(C)CCC(C)C
"2,5-dimethyl-4-isopropylheptane",170.33844,633.02,0.462,462.15,Cc1oc(C)cc1
"2,5-dimethyl-4-octanol",158.28408,613.56,0.822,464.0,CCC(C)CCC(C)C
"2,5-dimethyl-4-propylheptane",170.33844,630.72,0.491,463.15,CC(C)CCC(C)C
"2,5-dimethyl-5-ethylheptane",156.31156,627.77,0.419,451.15,CCCCC(C)CCC(C)C
"2,5-dimethyl-5-ethyloctane",170.33844,638.44,0.461,466.15,CCCC(C)CCC(C)C
"2,5-dimethyl-6-ethyloctane",170.33844,640.25,0.491,470.15,Cc1ccc(C)nc1
"2,5-dimethyl-6-ethylphenol",150.22056,711.68,0.54,500.0,Cc1ccc2c(C)cccc2n1
"2,5-dimethyl-cis-3-hexene",112.21504,550.28,0.317,375.15,CC1CCC(C)O1
"2,5-dimethyl-trans-3-hexene",112.21504,550.28,0.317,375.15,Cc1sc(C)cc1
"2,5-dimethylaniline",121.18208,695.58,0.433,487.15,Cc1ccc(C)c(S)c1
"2,5-dimethylbiphenyl",182.26516,792.44,0.458,549.48,Cc1cc(ccc1[N+]([O-])=O)[N+]([O-])=O
"2,5-dimethyldecane",170.33844,638.02,0.519,471.15,Cc1ccc(C)c(O)c1
"2,5-dimethylfuran",96.12892,557.13,0.332,366.15,CC(C)CCCC(C)CCCC(C)CCCC(C)C
"2,5-dimethylheptane",128.2578,581.1,0.393,409.16,CC(C)CCCC(C)CCCC(C)CCCCC(C)CCCC(C)CCCC(C)C
"2,5-dimethylhexane",114.23092,550.0,0.358,382.26,CCCC(C)(C)CCCC(C)C
"2,5-dimethylnonane",156.31156,621.49,0.478,452.15,CCC(C)(C)CCCC(C)C
"2,5-dimethyloctane",142.28468,603.0,0.44,431.65,CCC(C)C(C)CCCC(C)C
"2,5-dimethylpyridine",107.1552,644.2,0.379,430.15,CC(C)CC(C)CC(O)CC(C)C
"2,5-dimethylquinoline",157.21508,775.1,0.497,537.65,CC(C)(C)c1ccc2cc(ccc2c1)C(C)(C)C
"2,5-dimethyltetrahydrofuran",100.16068,556.78,0.282,365.65,CCC(C)c1cccc(C(C)CC)c1O
"2,5-dimethylthiophene",112.19552,627.8,0.297,409.85,Cc1cc(c(O)c(c1)C(C)(C)C)C(C)(C)C
"2,5-dimethylthiophenol",138.2334,714.1,0.373,478.15,CC(C)(C)c1cccc(c1O)C(C)(C)C
"2,5-dinitrotoluene",182.13572,814.0,0.712,590.0,CC(C)(Cl)CCCC(C)(C)Cl
"2,5-xylenol",122.1668,707.05,0.564,484.33,ClCc1c(Cl)cccc1Cl
"2,6,10,14-tetramethylpentadecane",268.5266,748.87,0.741,569.15,Cc1c(Cl)cccc1Cl
"2,6,10,15,19,23-hexamethyltetracosane",422.82228,863.0,0.915,720.0,CCc1cccc(CC)c1N
"2,6,6-trimethylnonane",170.33844,634.33,0.461,463.15,CCc1ccc2cc(CC)ccc2c1
"2,6,6-trimethyloctane",156.31156,624.99,0.419,449.15,CCc1cccc(CC)c1O
"2,6,7-trimethylnonane",170.33844,642.97,0.491,472.15,CC(C)c1ccc2cc(ccc2c1)C(C)C
"2,6,8-trimethylnonanol-4",186.33784,712.9,0.635,498.4,CSc1c(C)cccc1C
"2,6-bis(1,1-dimethylethyl)-naphthalene",240.38856,823.23,0.699,603.05,-
"2,6-di-sec-butylphenol",206.32808,765.0,0.631,530.65,CCC(C)CCCC(C)CO
"2,6-di-tert-butyl-p-cresol",220.35496,724.0,0.679,541.15,CC(C)CCCC(C)(C)O
"2,6-di-tert-butylphenol",206.32808,765.0,0.631,527.81,CCC(C)CCC=C(C)C
"2,6-dichloro-2,6-dimethylheptane",197.14732,688.79,0.528,517.15,CCC(CCC(C)C)C(C)C
"2,6-dichlorobenzyl chloride",195.4748,737.0,0.26,391.15,CCC(C)CCC(CC)C(C)C
"2,6-dichlorotoluene",161.03004,710.0,0.343,471.15,CCc1ccc(C)c(O)c1C
"2,6-diethylaniline",149.23584,678.0,0.912,508.65,CC(C)CCC(O)C(C)C
"2,6-diethylnaphthalene",184.28104,807.0,0.512,576.0,CC(C)CCC(=O)C(C)C
"2,6-diethylphenol",150.22056,699.96,0.541,491.15,CC(C)CC#CC(C)C
"2,6-diisopropylnaphthalene",212.3348,808.25,0.605,552.45,CC(C)CCC(C(C)C)C(C)C
"2,6-dimethyl-(1-thiaethyl)-benzene",152.26028,743.84,0.415,510.74,CCC(CC(C)C)CC(C)C
"2,6-dimethyl-1,3-dioxan-4-ol acetate, cis and trans",174.19676,669.0,0.582,480.0,CCC(C)CC(CC)CC(C)C
"2,6-dimethyl-1-octanol",158.28408,635.71,0.852,483.0,CCc1cc(C)c(O)c(C)c1
"2,6-dimethyl-2-heptanol",144.2572,598.01,0.748,444.15,CC(C)CC(O)CC(C)C
"2,6-dimethyl-2-octene",140.2688,616.98,0.457,436.15,CC(C)CC(CC(C)C)C(C)C
"2,6-dimethyl-3-ethylheptane",156.31156,621.14,0.449,449.15,CCC(C)CC(O)CC(C)C
"2,6-dimethyl-3-ethyloctane",170.33844,640.25,0.491,470.15,CCCC(CC(C)C)CC(C)C
"2,6-dimethyl-3-ethylphenol",150.22056,711.68,0.54,500.0,CCC(C)C(CC)CCC(C)C
"2,6-dimethyl-3-heptanol",144.2572,600.27,0.782,448.15,CCC(C)(CC)CCCC(C)C
"2,6-dimethyl-3-heptanone",142.24132,629.65,0.541,445.0,Cc1cccc(C)c1N
"2,6-dimethyl-3-heptyne",124.22604,621.49,0.373,403.75,Cc1cccc(C)c1c2ccccc2
"2,6-dimethyl-3-isopropylheptane",170.33844,635.48,0.462,463.95,CCCCC(C)CCCC(C)C
"2,6-dimethyl-4-ethylheptane",156.31156,612.84,0.449,443.15,CC(C)CC=CC(C)C
"2,6-dimethyl-4-ethyloctane",170.33844,630.72,0.491,463.15,CC(C)CCCC(C)C
"2,6-dimethyl-4-ethylphenol",150.22056,713.32,0.54,501.15,Cc1ccc2cc(C)ccc2c1
"2,6-dimethyl-4-heptanol",144.2572,603.0,0.802,451.0,CCCC(C)CCCC(C)C
"2,6-dimethyl-4-isopropylheptane",170.33844,624.8,0.462,456.15,CCC(C)CCCC(C)C
"2,6-dimethyl-4-octanol",158.28408,613.56,0.822,468.15,Cc1cccc(C)n1
"2,6-dimethyl-4-propylheptane",170.33844,623.36,0.491,457.75,Cc1ccc2nc(C)ccc2c1
"2,6-dimethyl-5-ethyloctane",170.33844,637.53,0.491,468.15,Cc1cccc(C)c1C=C
"2,6-dimethyl-6-ethyloctane",170.33844,645.29,0.461,471.15,Cc1cccc(C)c1S
"2,6-dimethylaniline",121.18208,695.58,0.433,488.15,CC1=C(C(=CC=C1)C)N
"2,6-dimethylbiphenyl",182.26516,768.1,0.475,536.15,Cc1c(cccc1[N+]([O-])=O)[N+]([O-])=O
"2,6-dimethyldecane",170.33844,638.02,0.519,471.15,CCCc1cccc(CCC)c1O
"2,6-dimethylhept-3-ene",126.24192,593.62,0.411,394.8,Cc1cccc(C)c1O
"2,6-dimethylheptane",128.2578,579.0,0.393,408.36,CCC(C)(C)CCCCC(C)C
"2,6-dimethylnaphthalene",156.22728,777.0,0.418,535.15,CC(C)CCCCC(C)(C)O
"2,6-dimethylnonane",156.31156,621.49,0.478,452.15,CCC(CCCC(C)C)C(C)C
"2,6-dimethyloctane",142.28468,606.0,0.439,433.53,CC(C)CCCC(O)C(C)C
"2,6-dimethylpyridine",107.1552,623.75,0.345,417.2,CCC(CCC(C)C)CC(C)C
"2,6-dimethylquinoline",157.21508,773.81,0.497,538.56,CC(C)CCC(O)CC(C)C
"2,6-dimethylstyrene",132.20528,679.34,0.375,465.57,CCCC(C)CCCCC(C)C
"2,6-dimethylthiophenol",138.2334,730.98,0.373,489.45,Cc1ccc2ccc(C)cc2c1
"2,6-dimethyt-2-octanol",158.28408,644.39,0.788,485.0,CCC(C)CCCCC(C)C
"2,6-dinitrotoluene",182.13572,770.0,0.714,558.0,CC(C)CCCCC(C)C
"2,6-dipropylphenol",178.27432,755.67,0.59,529.15,Cc1ccc2ccc(C)nc2c1
"2,6-xylenol",122.1668,701.25,0.455,474.22,CC(C)CCC(O)CCC(C)C
"2,7,7-trimethylnonane",170.33844,643.92,0.461,470.15,CC(C)CC(O)CC(CC(C)C)CC(C)C
"2,7-dimethyl-2-octanol",158.28408,644.39,0.788,485.0,CCC(C)CCCCCC(C)C
"2,7-dimethyl-3-ethyloctane",170.33844,638.89,0.491,469.15,CC(C)CCCCCC(C)C
"2,7-dimethyl-3-octanol",158.28408,617.73,0.822,467.15,Cc1ccc2cccc(C)c2n1
"2,7-dimethyl-4-ethyloctane",170.33844,630.72,0.491,463.15,CC(C)CCCCCCC(C)C
"2,7-dimethyl-4-octanol",158.28408,613.56,0.822,475.15,CC(C)CCC(CC(C)C)O
"2,7-dimethyldecane",170.33844,643.43,0.519,475.15,CCCC(C)CCCCC(C)C
"2,7-dimethylnaphthalene",156.22728,778.0,0.42,536.15,CC1=CC2=C(C=C1)C=CC(=C2)C
"2,7-dimethylnonane",156.31156,622.87,0.478,453.15,CCC(C)CCCCC(C)C
"2,7-dimethyloctane",142.28468,604.0,0.442,433.03,CC(C)CCCCC(C)C
"2,7-dimethylquinoline",157.21508,774.45,0.497,537.65,CC1=CC2=C(C=C1)C=CC(=N2)C
"2,8-dimethyl-5-nonanol",172.31096,696.85,0.596,506.13,CC(C)CCC(CCC(C)C)O
"2,8-dimethyl-6-isobutylnonanol-4",228.41848,732.87,0.871,603.77,CC(C)CC(CC(C)C)CC(CC(C)C)O
"2,8-dimethyldecane",170.33844,646.14,0.519,477.15,CCC(C)CCCCCC(C)C
"2,8-dimethylnonane",156.31156,626.99,0.478,456.15,CC(C)CCCCCC(C)C
"2,8-dimethylquinoline",157.21508,751.67,0.497,523.15,CC1=C2C(=CC=C1)C=CC(=N2)C
"2,9-dimethyldecane",170.33844,646.14,0.519,477.15,CC(C)CCCCCCC(C)C
"2,cis-3-dimethylthiacyclohexane",130.25416,641.36,0.262,422.27,-
"2,cis-3-dimethylthiacyclopentane",116.22728,607.56,0.247,395.12,-
"2,cis-3-dimethylthiacyclopropane",88.17352,537.89,0.218,340.82,-
"2,cis-4-dimethylthiacyclohexane",130.25416,641.36,0.262,422.27,-
"2,cis-4-dimethylthiacyclopentane",116.22728,607.56,0.247,395.12,CCCC(C)c1ccccc1O
"2,cis-5-dimethylthiacyclohexane",130.25416,641.36,0.262,422.27,CCOCCOCCO
"2,cis-5-dimethylthiacyclopentane",116.22728,639.17,0.247,415.68,CCCCC(CC)COCCO
"2,cis-6-dimethylthiacyclohexane",130.25416,641.36,0.262,422.27,COCCOCCO
"2,trans-3-dimethylthiacyclohexane",130.25416,641.36,0.262,422.27,CC(C)COCCO
"2,trans-3-dimethylthiacyclopentane",116.22728,607.56,0.247,395.12,CCC(C(O)=O)c1ccc(CC(C)C)cc1
"2,trans-3-dimethylthiacyclopropane",88.17352,537.89,0.218,340.82,CC(=O)Oc1ccccc1C(O)=O
"2,trans-4-dimethylthiacyclohexane",130.25416,641.36,0.262,422.27,CCCCNCCO
"2,trans-4-dimethylthiacyclopentane",116.22728,607.56,0.247,395.12,CC(CO)N(C)C
"2,trans-5-dimethylthiacyclohexane",130.25416,641.36,0.262,422.27,CCNCCO
"2,trans-5-dimethylthiacyclopentane",116.22728,638.36,0.247,415.15,CCSCCO
"2,trans-6-dimethylthiacyclohexane",130.25416,641.36,0.262,422.27,CC(C)CNCCO
2-(1-methylbutyl)phenol,164.24744,751.0,0.569,515.74,CC(C)NCCO
2-(2-ethoxyethoxy)ethanol,134.17536,656.0,0.681,475.05,CC(=O)CC(=O)OCCOC(=O)C(C)=C
2-(2-ethylhexyloxy)ethanol,174.28348,646.0,0.983,501.15,CCCNCCO
2-(2-methoxyethoxy)ethanol,120.14848,630.0,0.871,466.75,CC(C)(C)NCCO
2-(2-methylpropoxy)ethanol,118.17596,600.0,0.817,433.15,CCC(N)CO
2-(4-isobutylphenyl)butyric acid,172.2676,713.0,0.877,473.73,COCC(C)N
2-(acetyloxy)benzoic acid,180.16012,765.0,0.833,564.0,CC(=O)OC1=CC=CC=C1C(=O)O
2-(butylamino)ethanol,117.19124,681.0,0.97,472.15,CC(C)C(C)(C)N
2-(dimethylamino)-1-propanol,103.16436,626.41,0.841,423.45,CC(N)(CO)CO
2-(ethylamino)ethanol,89.13748,571.82,0.711,442.65,CC(C)(N)CO
2-(ethylthio)ethanol,106.1888,641.0,0.731,456.65,CCCC(C)(C)N
2-(isobutylamino)ethanol,117.19124,681.0,0.97,472.15,CC(N)C(C)(C)C
2-(isopropylamino)ethanol,103.16436,626.41,0.841,446.15,CC(C)C(N)CO
2-(methacryloyloxy)ethyl acetoacetate,214.21816,761.0,0.822,575.0,CC(=C)C(=O)OCCOC(=O)CC(=O)C
2-(propylamino)ethanol,103.16436,626.41,0.841,455.15,CCC(C)C(C)N
2-[tert-butylamino]ethanol,117.19124,681.0,0.97,449.65,CCC(O)C(C)N