name,molweight,critical temperature (K),acentric factor,boiling point (K),SMILES
"2,3,3,4-tetramethylhexane",142.28468,633.1,0.334,437.75,CC(Br)C(C)(Br)Br
"2,3,3,4-tetramethyloctane",170.33844,653.29,0.432,474.15,CC(Cl)C(C)(Cl)Cl
"2,3,3,4-tetramethylpentane",128.2578,607.5,0.314,414.7,CC(F)C(C)(F)F
"2,3,3,5,5-pentamethylheptane",170.33844,660.06,0.375,473.15,CC(CO)C(C)(C)C
"2,3,3,5,6-pentamethylheptane",170.33844,644.85,0.404,465.15,CC(=C)C(C)(C)C
"2,3,3,5-tetramethyl-4-ethylhexane",170.33844,651.79,0.404,470.15,CCC(C)(C)C(C)CO
"2,3,3,5-tetramethylheptane",156.31156,629.04,0.391,449.15,CCC(C)(C)C(C)=C
"2,3,3,5-tetramethylhexane",142.28468,610.1,0.351,426.26,CC(C)(C)C(C)(C)O
"2,3,3,5-tetramethyloctane",170.33844,643.65,0.432,467.15,CCC(C)(C)C(C)(C)O
"2,3,3,6-tetramethylheptane",156.31156,627.64,0.391,448.15,CCCC(CC)C(C)(C)C(C)C
"2,3,3,6-tetramethyloctane",170.33844,646.41,0.432,469.15,CCC(CC)C(C)(C)C(C)C
"2,3,3,7-tetramethyloctane",170.33844,646.41,0.432,469.15,CCC(CC)CC(C)(C)C(C)C
"2,3,3-tribromobutane",294.81158,721.95,0.462,479.15,CCCCC(C)(C)C(C)C
"2,3,3-trichlorobutane",161.45768,633.36,0.271,416.15,CCCC(C)(C)C(C)C
"2,3,3-trifluorobutane",112.0947896,432.9,0.269,285.06,CCCCCCC(C)(C)C(C)C
"2,3,3-trimethyl-1-butanol",116.20344,601.01,0.662,433.15,CCCCCC(C)(C)C(C)C
"2,3,3-trimethyl-1-butene",98.18816,531.0,0.239,351.04,CCC(C)(C)C(C)C
"2,3,3-trimethyl-1-pentanol",130.23032,613.33,0.706,449.0,CCC(C)C(C)(C)C(C)C(C)C
"2,3,3-trimethyl-1-pentene",112.21504,565.71,0.272,381.46,CC(C)CC(C)(C)C(C)C(C)C
"2,3,3-trimethyl-2-butanol",116.20344,568.02,0.595,404.15,CCC(C)(C)C(C)C(C)(C)O
"2,3,3-trimethyl-2-pentanol",130.23032,598.76,0.639,433.15,CC(C(C)(C)C)C(C)(C)O
"2,3,3-trimethyl-4-ethylheptane",170.33844,650.54,0.432,472.15,CCC(C)(C)C(C)(CC)C(C)C
"2,3,3-trimethyl-4-ethylhexane",156.31156,638.85,0.391,456.15,CCC(C)(C)C(C)(O)C(C)C
"2,3,3-trimethyl-5-ethylheptane",170.33844,643.65,0.432,467.15,CCCC(C)(C)C(C)C(C)C
"2,3,3-trimethylheptane",142.28468,617.5,0.371,433.36,CCC(C)(C)C(C)C(C)C
"2,3,3-trimethylhexane",128.2578,596.0,0.333,410.84,CCCCC(C)(C)C(C)C(C)C
"2,3,3-trimethylnonane",170.33844,650.77,0.461,475.15,CCC(C)(C)C(C)C(C)C(C)C
"2,3,3-trimethyloctane",156.31156,633.34,0.419,455.15,CC(C)C(C)C(C)C(C)C(C)C
"2,3,3-trimethylpentane",114.23092,573.5,0.29,387.92,CCC(C)(C(C)C)C(C)C(C)C
"2,3,4,4,5-pentamethylheptane",170.33844,655.95,0.404,473.15,Cc1cc(N)c(C)c(C)c1C
"2,3,4,4,6-pentamethylheptane",170.33844,642.08,0.404,463.15,CCC(C)C(C)C(C)C(C)C
"2,3,4,4-tetramethyl-2-hexanol",158.28408,624.93,0.693,463.15,CC(C)C(C)C(C)C(C)C
"2,3,4,4-tetramethyl-2-pentanol",144.2572,620.23,0.651,453.0,CCCC(C)C(C)C(C)C(C)C
"2,3,4,4-tetramethyl-3-ethylhexane",170.33844,671.22,0.375,481.15,Cc1cc(O)c(C)c(C)c1C
"2,3,4,4-tetramethyl-3-hexanol",158.28408,639.77,0.693,474.15,Cc1cc(C)c(N)c(C)c1C
"2,3,4,4-tetramethylheptane",156.31156,631.84,0.391,451.15,CC(C)CC(C)C(C)C(C)C
"2,3,4,4-tetramethylhexane",142.28468,626.6,0.339,434.76,CCC(C)CC(C)C(C)C(C)C
"2,3,4,4-tetramethyloctane",170.33844,646.41,0.432,469.15,Cc1cc(C)c(O)c(C)c1C
"2,3,4,5,5-pentamethylheptane",170.33844,651.79,0.404,470.15,CC(C)CCC(C)C(C)C(C)C
"2,3,4,5,6-pentamethylheptane",170.33844,645.08,0.434,468.15,CC(C)C(C)C(C)CO
"2,3,4,5-tetramethyl-3-ethylhexane",170.33844,657.33,0.404,474.15,CC(C)C(C)C(C)=C
"2,3,4,5-tetramethylaniline",149.23584,690.0,0.69,532.65,CCC(C)C(C)C(C)(C)O
"2,3,4,5-tetramethylheptane",156.31156,629.22,0.421,452.15,CC(C)C(C)C(C)(C)O
"2,3,4,5-tetramethylhexane",142.28468,613.2,0.365,429.36,CC(C)C(C)=C(C)C
"2,3,4,5-tetramethyloctane",170.33844,643.97,0.462,470.15,CCCC(C)C(C)(CC)C(C)C
"2,3,4,5-tetramethylphenol",150.22056,757.92,0.538,533.15,CCC(C)C(C)(CC)C(C)C
"2,3,4,6-tetramethylaniline",149.23584,690.0,0.69,528.15,CCC(C)C(C)(O)C(C)C
"2,3,4,6-tetramethylheptane",156.31156,622.26,0.421,447.15,CCC(C)C(C)(C(C)C)C(C)C
"2,3,4,6-tetramethyloctane",170.33844,641.23,0.462,468.15,CC(C)C(C)(C(C)C)C(C)C
"2,3,4,6-tetramethylphenol",150.22056,743.7,0.538,523.15,CC(C)C(C)(O)C(C)C
"2,3,4,7-tetramethyloctane",170.33844,639.86,0.462,467.15,CCCC(C)(CC)C(C)C(C)C
"2,3,4-trimethyl-1-pentanol",130.23032,619.59,0.741,456.15,CCC(C)(CC)C(C)C(C)C
"2,3,4-trimethyl-1-pentene",112.21504,557.76,0.308,381.15,CCC(CC)C(C)C(C)C(C)C
"2,3,4-trimethyl-2-hexanol",144.2572,630.85,0.716,466.0,CCCC(C)C(C)C(C)C
"2,3,4-trimethyl-2-pentanol",130.23032,592.43,0.674,431.15,CCC(C)C(C)C(C)C
"2,3,4-trimethyl-2-pentene",112.21504,574.12,0.297,389.41,CCCCCC(C)C(C)C(C)C
"2,3,4-trimethyl-3-ethylheptane",170.33844,656.05,0.432,476.15,CCCCC(C)C(C)C(C)C
"2,3,4-trimethyl-3-ethylhexane",156.31156,644.45,0.391,460.15,CC(C)C(C)C(C)C
"2,3,4-trimethyl-3-hexanol",144.2572,594.3,0.716,439.0,Cc1ccc(O)c(C)c1C
"2,3,4-trimethyl-3-isopropylhexane",170.33844,661.49,0.404,477.15,Cc1ccnc(C)c1C
"2,3,4-trimethyl-3-isopropylpentane",156.31156,647.34,0.362,459.15,Cc1scc(C)c1C
"2,3,4-trimethyl-3-pentanol",130.23032,591.06,0.674,430.15,CC(C)C(C)(O)CC(C)(C)C
"2,3,4-trimethyl-4-ethylheptane",170.33844,649.16,0.432,471.15,CCC(C)(C)CC(C)C(C)C
"2,3,4-trimethyl-4-ethylhexane",156.31156,634.64,0.391,453.15,CCCC(C)(C)CC(C)C(C)C
"2,3,4-trimethyl-5-ethylheptane",170.33844,643.97,0.462,470.15,CC(C)C(C)CC(C)C(C)C
"2,3,4-trimethylheptane",142.28468,613.7,0.391,433.06,CCC(C)C(C)CC(C)C(C)C
"2,3,4-trimethylhexane",128.2578,594.5,0.353,412.2,Cc1cc(C)c(C)c(O)c1C
"2,3,4-trimethylnonane",170.33844,644.34,0.491,473.15,CC(C)CC(C)CC(C)C(C)C
"2,3,4-trimethyloctane",156.31156,626.67,0.449,453.15,CCC(C)CC(C)(CC)C(C)C
"2,3,4-trimethylpentane",114.23092,566.4,0.315,386.62,CCC(C)(CC(C)C)C(C)C
"2,3,4-trimethylphenol",136.19368,739.96,0.494,510.15,CC(C)CC(C)(O)C(C)C
"2,3,4-trimethylpyridine",121.18208,653.0,0.376,465.65,CC(C)CC(C)(C(C)C)C(C)C
"2,3,4-trimethylthiophene",126.2224,654.54,0.431,445.85,CCC(C)C(CC)C(C)C(C)C
"2,3,5,5-tetramethyl-3-hexanol",158.28408,640.92,0.693,475.0,CCC(C(C)C)C(C)C(C)C
"2,3,5,5-tetramethylheptane",156.31156,623.44,0.391,445.15,CC(C)C(C)C(C(C)C)C(C)C
"2,3,5,5-tetramethyloctane",170.33844,645.03,0.432,468.15,CCC(C)(CC)CC(C)C(C)C
"2,3,5,6-tetramethylheptane",156.31156,623.65,0.421,448.15,CCC(C)CC(C)C(C)C
"2,3,5,6-tetramethyloctane",170.33844,641.23,0.462,468.15,CC(C)CC(C)C(C)C
"2,3,5,6-tetramethylphenol",150.22056,740.86,0.538,521.15,CCCCC(C)CC(C)C(C)C
"2,3,5,7-tetramethyloctane",170.33844,634.39,0.462,463.15,CCCC(C)CC(C)C(C)C
"2,3,5-trimethyl-3-ethylheptane",170.33844,648.47,0.432,470.65,Cc1cc(C)c(C)c(O)c1
"2,3,5-trimethyl-3-ethylhexane",156.31156,629.04,0.391,449.15,Cc1cnc(C)c(C)c1
"2,3,5-trimethyl-3-hexanol",144.2572,594.3,0.716,439.0,Cc1sc(C)c(C)c1
"2,3,5-trimethyl-3-isopropylhexane",170.33844,647.63,0.404,467.15,CCC(C)(C)CCC(C)C(C)C
"2,3,5-trimethyl-4-ethylheptane",170.33844,642.6,0.462,469.15,Cc1cc2cc(C)c(C)cc2cc1C
"2,3,5-trimethyl-4-ethylhexane",156.31156,626.44,0.421,450.15,CC(C)C(C)CCC(C)C(C)C
"2,3,5-trimethyl-4-isopropylhexane",170.33844,638.19,0.434,463.15,Cc1c(Cl)ccc(Cl)c1Cl
"2,3,5-trimethyl-5-ethylheptane",170.33844,643.65,0.432,467.15,CCC(C)(CCC(C)C)C(C)C
"2,3,5-trimethylheptane",142.28468,612.8,0.397,433.86,CC(C)CCC(C)(O)C(C)C
"2,3,5-trimethylhexane",128.2578,579.2,0.364,404.5,CCC(CC(C)C)C(C)C(C)C
"2,3,5-trimethylnonane",170.33844,638.89,0.491,469.15,CCC(CC(C)C(C)C)C(C)C
"2,3,5-trimethyloctane",156.31156,622.52,0.449,450.15,CC(C)CCC(C)C(C)C
"2,3,5-trimethylphenol",136.19368,737.64,0.494,508.55,Cc1ccc2cc(C)c(C)cc2c1
"2,3,5-trimethylpyridine",121.18208,653.0,0.376,457.15,CCCC(C)CCC(C)C(C)C
"2,3,5-trimethylthiophene",126.2224,656.26,0.341,437.65,CCC(C)CCC(C)C(C)C
"2,3,6,6-tetramethyloctane",170.33844,642.27,0.432,466.15,Cc1ccc(C)c(O)c1C
"2,3,6,7-tetramethylnaphthalene",184.28104,810.54,0.535,585.41,Cc1ccc(C)c(C)n1
"2,3,6,7-tetramethyloctane",170.33844,642.6,0.462,469.15,CCC(C)CCCC(C)C(C)C
"2,3,6-trichlorotoluene",195.4748,737.0,0.26,483.65,CC(C)CCCC(C)C(C)C
"2,3,6-trimethyl-3-ethylheptane",170.33844,646.41,0.432,469.15,CC(C)CCCCC(C)C(C)C
"2,3,6-trimethyl-3-heptanol",158.28408,618.25,0.757,463.0,-
"2,3,6-trimethyl-4-ethylheptane",170.33844,634.39,0.462,463.15,CC(C)(Br)C(C)(C)Br
"2,3,6-trimethyl-5-ethylheptane",170.33844,638.5,0.462,466.15,CC(Br)C(C)(C)Br
"2,3,6-trimethylheptane",142.28468,604.1,0.403,429.16,CC(Br)C(C)Br
"2,3,6-trimethylnaphthalene",170.25416,775.49,0.492,550.15,CCCCC(Br)C(C)Br
"2,3,6-trimethylnonane",170.33844,641.61,0.491,471.15,CCCC(Br)C(C)Br
"2,3,6-trimethyloctane",156.31156,626.67,0.449,453.15,CCC(Br)C(C)Br
"2,3,6-trimethylphenol",136.19368,739.74,0.494,510.0,CC(Cl)C(Cl)=C
"2,3,6-trimethylpyridine",121.18208,653.0,0.376,444.75,OCC(Cl)CCl
"2,3,7-trimethylnonane",170.33844,645.7,0.491,474.15,CC(Cl)C(C)(C)Cl
"2,3,7-trimethyloctane",156.31156,625.29,0.449,452.15,CC(C)CCCC(C)C(C)C
"2,3,8-trimethylnonane",170.33844,644.34,0.491,473.15,CCCC(Cl)C(C)Cl
"2,3-butanediamine, (R*,R*)-(±)",88.15276,612.33,0.533,396.09,CCCCCC(Cl)C(C)Cl
"2,3-dibromo-2,3-dimethylbutane",243.96928,684.21,0.526,486.03,CCC(Cl)C(C)Cl
"2,3-dibromo-2-methylbutane",229.9424,668.37,0.377,444.01,ClCC(Cl)=C
"2,3-dibromobutane",215.91552,657.46,0.415,434.15,Cc1cccc(Cl)c1Cl
"2,3-dibromoheptane",257.99616,700.05,0.571,510.82,CCc1cc2ccccc2cc1CC
"2,3-dibromohexane",243.96928,684.21,0.526,469.15,CCc1cccc(O)c1CC
"2,3-dibromopentane",229.9424,668.68,0.448,451.65,CC(F)C(C)(C)F
"2,3-dichloro-1-butene",124.99704,640.0,0.302,385.15,CC(F)C(C)F
"2,3-dichloro-1-propanol",128.98544,647.0,0.699,457.15,CCC(F)C(C)F
"2,3-dichloro-2-methylbutane",141.0398,633.42,0.262,402.15,Cc1cc(C)c2CCC(C)(C)c2c1
"2,3-dichlorobutane, dl and meso",127.01292,599.0,0.268,392.65,Cc1ccc(C)c2c1CCC2(C)C
"2,3-dichlorohexane",155.06668,633.09,0.397,436.65,C1CC=CO1
"2,3-dichlorooctane",183.12044,672.06,0.485,479.15,CC(I)C(C)(C)I
"2,3-dichloropentane",141.0398,614.06,0.323,412.15,CC(I)C(C)I
"2,3-dichloropropene",110.97016,578.0,0.194,366.5,CCC(I)C(C)I
"2,3-dichlorotoluene",161.03004,710.0,0.343,480.65,CSc1cccc(C)c1C
"2,3-diethylnaphthalene",184.28104,812.35,0.537,585.41,CC(C)C(C)(O)CO
"2,3-diethylphenol",150.22056,719.7,0.541,505.0,CC(=C)C(C)=C
"2,3-difluoro-2-methylbutane",108.1312064,467.07,0.261,308.67,CC(CO)C(C)(C)O
"2,3-difluorobutane",94.1043264,487.02,0.277,320.15,CC(C)C(C)CO
"2,3-difluoropentane",108.1312064,491.0,0.321,330.0,CC(C)C(C)CO
"2,3-dihydro-1,1,4,6-tetramethyl-1H-indene",174.28592,749.21,0.468,525.62,CC(C)C(C)=C
"2,3-dihydro-1,1,4,7-tetramethyl-1H-indene",174.28592,749.21,0.468,525.62,CCCC(C)C(C)CO
"2,3-dihydrofuran",70.09104,524.0,0.226,327.65,CCCC(C)C(C)=C
"2,3-diiodo-2-methylbutane",323.94334,759.04,0.242,496.41,CCC(C)C(C)CO
"2,3-diiodobutane",309.91646,732.32,0.258,476.32,CCC(C)C(C)=C
"2,3-diiodopentane",323.94334,750.13,0.302,499.2,CC(C)(O)C(C)(C)O
"2,3-dimethyl-(1-thiaethyl)-benzene",152.26028,743.84,0.415,510.74,CC(C)(c1ccccc1)C(C)(C)c2ccccc2
"2,3-dimethyl-1,2-butanediol",118.17596,636.35,1.105,480.0,CCC(C)(O)C(C)(C)O
"2,3-dimethyl-1,3-butadiene",82.1454,526.0,0.214,341.93,CC(C)C(C)(C)S
"2,3-dimethyl-1,3-butanediol",118.17596,636.35,1.105,480.0,CC(C)C(C)(C)O
"2,3-dimethyl-1-butanol",102.17656,599.0,0.576,422.15,CC(C)=C(C)C
"2,3-dimethyl-1-butanol, (±)-",102.17656,581.8,0.582,417.65,CCC(C)(CO)C(C)C
"2,3-dimethyl-1-butene",84.16128,501.0,0.233,328.76,CCCCC(C)C(C)(C)O
"2,3-dimethyl-1-hexanol",130.23032,603.81,0.773,447.0,CCCCC(C)=C(C)C
"2,3-dimethyl-1-hexene",112.21504,561.0,0.325,383.65,CCCC(C)C(C)(C)O
"2,3-dimethyl-1-pentanol",116.20344,599.26,0.731,437.15,CCCC(C)=C(C)C
"2,3-dimethyl-1-pentene",98.18816,532.72,0.288,357.43,CCC(C)C(C)(C)O
"2,3-dimethyl-2,3-butanediol",118.17596,597.11,1.03,445.95,CCC(C)=C(C)C
"2,3-dimethyl-2,3-diphenylbutane",238.37268,805.0,0.521,589.0,CC(C)C(C)(CO)C(C)(C)C
"2,3-dimethyl-2,3-pentanediol",132.20284,695.12,1.069,525.85,CCC(CC)C(C)(CC)C(C)C
"2,3-dimethyl-2-butanethiol",118.24316,615.0,0.353,407.26,CCC(C)(CC)C(C)(C)O
"2,3-dimethyl-2-butanol",102.17656,564.4,0.496,391.75,CCCCC(C)(CC)C(C)C
"2,3-dimethyl-2-butene",84.16128,528.0,0.224,346.35,CCCCCC(C)(CC)C(C)C
"2,3-dimethyl-2-ethyl-1-butanol",130.23032,609.23,0.706,446.0,CCC(C)(CC)C(C)C
"2,3-dimethyl-2-heptanol",144.2572,612.62,0.748,455.0,CCCCC(C)(O)C(C)C
"2,3-dimethyl-2-heptene",126.24192,593.62,0.411,418.35,CCCC(C)(O)C(C)C
"2,3-dimethyl-2-hexanol",130.23032,591.82,0.706,433.25,CCCCC(C)(C(C)C)C(C)C
"2,3-dimethyl-2-hexene",112.21504,577.66,0.326,394.92,CCCC(C)(C(C)C)C(C)C
"2,3-dimethyl-2-pentanol",116.20344,571.87,0.662,412.15,CCCCCC(C)(O)C(C)C
"2,3-dimethyl-2-pentene",98.18816,553.47,0.282,370.55,CCC(C)(O)C(C)C
"2,3-dimethyl-2-tert-butyl-1-butanol",158.28408,628.77,0.693,466.0,CCC(CC)(CC)C(C)C(C)C
"2,3-dimethyl-3,4-diethylhexane",170.33844,657.43,0.432,477.15,CCCC(CC)C(C)C(C)C
"2,3-dimethyl-3-ethyl-2-pentanol",144.2572,627.54,0.682,461.0,CCCCC(CC)C(C)C(C)C
"2,3-dimethyl-3-ethylheptane",156.31156,630.56,0.419,453.15,CCc1ccc(O)c(C)c1C
"2,3-dimethyl-3-ethyloctane",170.33844,650.77,0.461,475.15,CCCC(C(C)C)C(C)C(C)C
"2,3-dimethyl-3-ethylpentane",128.2578,606.8,0.349,417.86,CCCC(CCC)C(C)C(C)C
"2,3-dimethyl-3-heptanol",144.2572,602.05,0.748,447.15,CCC(CC)CC(C)C(C)C
"2,3-dimethyl-3-hexanol",130.23032,589.22,0.706,431.35,CCCC(CC)CC(C)C(C)C
"2,3-dimethyl-3-isopropylheptane",170.33844,653.29,0.432,474.15,CCc1cc(C)c(C)c(O)c1
"2,3-dimethyl-3-isopropylhexane",156.31156,634.64,0.391,453.15,CCC(CC)CCC(C)C(C)C
"2,3-dimethyl-3-octanol",158.28408,614.17,0.788,462.25,CCc1ccc(C)c(C)c1O
"2,3-dimethyl-3-pentanol",116.20344,573.26,0.662,413.15,CCC(C)(C(C)C)O
"2,3-dimethyl-4,4-diethylhexane",170.33844,657.43,0.432,477.15,-
"2,3-dimethyl-4-ethylheptane",156.31156,625.29,0.449,452.15,Cc1cccc(N)c1C
"2,3-dimethyl-4-ethyloctane",170.33844,640.25,0.491,470.15,Cc1cccc(c2ccccc2)c1C
"2,3-dimethyl-4-ethylphenol",150.22056,725.91,0.54,510.0,CC(C)C(C)C=O
"2,3-dimethyl-4-isopropylheptane",170.33844,637.13,0.462,465.15,CC(C)C(C)C
"2,3-dimethyl-4-propylheptane",170.33844,636.16,0.491,467.15,CC(C)C(C)C#N
"2,3-dimethyl-5-ethylheptane",156.31156,623.9,0.449,451.15,CC(C)C(C)C(O)=O
"2,3-dimethyl-5-ethyloctane",170.33844,636.16,0.491,467.15,CCCCCCCC(C)C(C)C
"2,3-dimethyl-5-ethylphenol",150.22056,725.91,0.54,510.0,CCCCCCCCCC(C)C(C)C
"2,3-dimethyl-6-ethyloctane",170.33844,642.97,0.491,472.15,Cc1occc1C
"2,3-dimethyl-6-ethylphenol",150.22056,725.91,0.54,510.0,CCCCCCCCCCCCCCC(C)C(C)C
"2,3-dimethyl-cis-3-hexene",112.21504,567.08,0.322,387.15,CCCCC(C)C(C)C
"2,3-dimethyl-trans-3-hexene",112.21504,567.08,0.322,387.15,CCCCCCCCCCCCCC(C)C(C)C
"2,3-dimethylaniline",121.18208,695.58,0.433,494.65,CCCC(C)C(C)C
"2,3-dimethylbiphenyl",182.26516,802.0,0.416,551.15,Cc1cc2ccccc2cc1C
"2,3-dimethylbutanal",100.16068,567.64,0.402,386.15,CCCCCCC(C)C(C)C
"2,3-dimethylbutane",86.17716,500.0,0.25,331.13,CCCCCCCCCCCCCCCC(C)C(C)C
"2,3-dimethylbutanenitrile",97.16008,582.4,0.412,401.15,CCCCCC(C)C(C)C
"2,3-dimethylbutanoic acid",116.16008,661.0,0.652,464.85,CCCCCCCCCCCCC(C)C(C)C
"2,3-dimethyldecane",170.33844,648.85,0.519,479.15,CCC(C)C(C)C
"2,3-dimethyldodecane",198.3922,686.04,0.595,520.15,Cc1cccnc1C
"2,3-dimethylfuran",96.12892,559.41,0.332,367.65,Cc1cc2ccccc2nc1C
"2,3-dimethylheptadecane",268.5266,754.89,0.722,600.15,Cc1cccc(C=C)c1C
"2,3-dimethylheptane",128.2578,589.6,0.385,413.66,CCCCCCCCCCCC(C)C(C)C
"2,3-dimethylhexadecane",254.49972,742.82,0.706,586.15,CC1CCOC1C
"2,3-dimethylhexane",114.23092,563.5,0.346,388.76,Cc1sccc1C
"2,3-dimethylnaphthalene",156.22728,777.78,0.443,541.16,Cc1cccc(S)c1C
"2,3-dimethylnonane",156.31156,631.11,0.478,459.15,CCCCCCCCCCC(C)C(C)C
"2,3-dimethyloctadecane",282.55348,767.45,0.732,614.15,CCCCCCCCC(C)C(C)C
"2,3-dimethyloctane",142.28468,613.0,0.433,437.47,C=C(Cc1ccccc1)c2ccccc2
"2,3-dimethylpentadecane",240.47284,729.97,0.685,571.15,CC[CH]=[C]=[CH]C
"2,3-dimethylpentane",100.20404,537.3,0.296,362.93,C[CH]=[C]=[CH]C
"2,3-dimethylpyridine",107.1552,655.4,0.358,434.35,Cc1cccc(O)c1C
"2,3-dimethylquinoline",157.21508,774.45,0.497,536.15,CC1=CC2=CC=CC=C2N=C1C
"2,3-dimethylstyrene",132.20528,679.34,0.375,465.57,CCC(C)(C)C(C)(C)CC(C)C
"2,3-dimethyltetradecane",226.44596,716.26,0.659,555.15,CC(C)C(O)C(C)(C)C(C)C
"2,3-dimethyltetrahydrofuran",100.16068,563.4,0.282,370.0,CCC(C)C(C)(C)CC(C)C
"2,3-dimethylthiophene",112.19552,635.3,0.297,414.75,CCCC(C)C(C)(C)CC(C)C
"2,3-dimethylthiophenol",138.2334,730.98,0.373,489.45,CC(C)CC(C)(C)CC(C)C
"2,3-dimethyltridecane",212.41908,701.64,0.629,538.15,CCC(C)CC(C)(C)CC(C)C
"2,3-dimethylundecane",184.36532,669.37,0.558,501.15,CC(C)CCC(C)(C)CC(C)C
"2,3-diphenyl-1-propene",194.27616,796.49,0.465,562.15,CC(CO)CC(C)(C)C
"2,3-hexadiene",82.1454,523.91,0.253,341.15,CC(=C)CC(C)(C)C
"2,3-pentadiene",68.11852,497.0,0.218,321.4,CCC(C)(C)CC(C)(C)O
"2,3-xylenol",122.1668,722.95,0.516,490.07,CC(C)(C)CC(C)(C)O
"2,4'-dimethlbiphenyl",182.26516,788.2,0.455,547.15,CC(C)=CC(C)(C)C
"2,4,4,5,5-pentamethylheptane",170.33844,654.48,0.375,469.15,CCCC(C)(C)C(CC)C(C)C
"2,4,4,5-tetramethyl-3-hexanol",158.28408,637.55,0.726,475.0,CCC(C(C)C)C(C)(C)CC
"2,4,4,5-tetramethylheptane",156.31156,626.24,0.391,447.15,CCC(C)(C)C(O)C(C)C
"2,4,4,5-tetramethyloctane",170.33844,639.52,0.432,464.15,CCC(C)(C)C(C(C)C)C(C)C
"2,4,4,6-tetramethylheptane",156.31156,612.24,0.391,437.15,CCC(CC)C(C)(C)CC(C)C
"2,4,4,6-tetramethyloctane",170.33844,631.25,0.432,458.15,CCCC(C)(C)CC(C)C
"2,4,4,7-tetramethyloctane",170.33844,629.87,0.432,457.15,CCC(C)(C)CC(C)C
"2,4,4-trimethyl-1-pentanol",130.23032,606.71,0.706,444.15,CCCCCC(C)(C)CC(C)C
"2,4,4-trimethyl-1-pentene",112.21504,550.0,0.301,374.59,CCCCC(C)(C)CC(C)C
"2,4,4-trimethyl-2-hexanol",144.2572,634.35,0.682,466.0,CC(=C)CC(C)(C)C
"2,4,4-trimethyl-2-pentanol",130.23032,579.96,0.639,419.55,CCC(C)(C)C(C)CC(C)C
"2,4,4-trimethyl-2-pentene",112.21504,555.0,0.297,378.06,CCCC(C)(C)C(C)CC(C)C
"2,4,4-trimethyl-3-ethylheptane",170.33844,643.65,0.432,467.15,CCC(C)C(C)C(C)CC(C)C
"2,4,4-trimethyl-3-ethylhexane",156.31156,631.84,0.391,451.15,CC(C)CC(C)C(C)CC(C)C
"2,4,4-trimethyl-3-hexanol",144.2572,601.27,0.716,444.15,CC(C)C(C)CC(C)(C)O
"2,4,4-trimethyl-3-isopropylhexane",170.33844,644.85,0.404,465.15,CCC(C)C(C)C(CC)C(C)C
"2,4,4-trimethyl-5-ethylheptane",170.33844,640.89,0.432,465.15,CCC(C)C(C)(CC)CC(C)C
"2,4,4-trimethylheptane",142.28468,600.3,0.383,424.16,CCC(C)C(C)(O)CC(C)C
"2,4,4-trimethylhexane",128.2578,581.0,0.352,403.81,CCC(C)(CC)C(C)CC(C)C
"2,4,4-trimethylnonane",170.33844,634.33,0.461,463.15,Cc1cc(C)c(N)cc1C
"2,4,4-trimethyloctane",156.31156,618.03,0.419,444.15,CCC(C)C(C)CC(C)C
"2,4,4-trimethylpentene",112.21504,564.74,0.328,376.15,CCCCC(C)C(C)CC(C)C
"2,4,5,5-tetramethylheptane",156.31156,629.04,0.391,449.15,CCCC(C)C(C)CC(C)C
"2,4,5,5-tetramethyloctane",170.33844,640.89,0.432,465.15,Cc1cc(C)c(O)cc1C
"2,4,5,6-tetramethyloctane",170.33844,639.86,0.462,467.15,Cc1cc(C)c(C)cn1
"2,4,5,7-tetramethyloctane",170.33844,629.32,0.462,459.45,CCC(C)(C)CC(C)CC(C)C
"2,4,5-trimethyl-2-hexanol",144.2572,630.85,0.716,466.0,CC(C)CC(C)CC(C)(C)O
"2,4,5-trimethyl-3-ethylheptane",170.33844,642.6,0.462,469.15,CCC(C(C)C)C(C)CC(C)C
"2,4,5-trimethyl-4-ethylheptane",170.33844,645.03,0.432,468.15,-
"2,4,5-trimethyl-4-heptanol",158.28408,607.56,0.757,455.0,CCC(C)(CC(C)C)CC(C)C
"2,4,5-trimethyl-5-ethylheptane",170.33844,647.78,0.432,470.15,CC(C)CC(C)(O)CC(C)C
"2,4,5-trimethylaniline",135.20896,705.58,0.413,507.65,Cc1cc(C)c(N)c(C)c1
"2,4,5-trimethylheptane",142.28468,606.9,0.397,429.66,CC(C)CC(C)CC(C)C
"2,4,5-trimethylnonane",170.33844,637.53,0.491,468.15,CCCC(C)CC(C)CC(C)C
"2,4,5-trimethyloctane",156.31156,621.14,0.449,449.15,CCC(C)CC(C)CC(C)C
"2,4,5-trimethylphenol",136.19368,737.64,0.494,508.55,Cc1cc(C)c(O)c(C)c1
"2,4,5-trimethylpyridine",121.18208,653.0,0.376,461.15,Cc1cc(C)nc(C)c1
"2,4,6,6-tetramethyloctane",170.33844,634.0,0.432,460.15,Cc1c(cc(cc1[N+]([O-])=O)[N+]([O-])=O)[N+]([O-])=O
"2,4,6-trimethyl-2-heptanol",158.28408,622.25,0.757,466.0,CCC(C)CCC(C)CC(C)C
"2,4,6-trimethyl-3-ethylheptane",170.33844,635.76,0.462,464.15,CC(C)CCC(C)CC(C)C
"2,4,6-trimethyl-3-heptene, isomer",140.2688,616.98,0.457,439.96,CC(C)CCCC(C)CC(C)C
"2,4,6-trimethyl-4-ethylheptane",170.33844,631.25,0.432,458.15,CC(C)c1ccc(O)c(c1)C(C)C
"2,4,6-trimethyl-4-heptanol",158.28408,607.76,0.757,455.15,Cc1cc(O)c(cc1C(C)(C)C)C(C)(C)C