name,molweight,critical temperature (K),acentric factor,boiling point (K),SMILES
"2,2,3,3,4-pentamethylpentane",142.28468,643.8,0.294,439.21,CC(C)C(C)(C)C(C)C(C)(C)C
"2,2,3,3,5,5-hexamethylhexane",170.33844,661.75,0.318,468.15,CCC(C)(C(C)(C)C)C(C)(C)C
"2,2,3,3,5-pentamethylheptane",170.33844,651.69,0.375,467.15,CC(C)(C)C(C)(O)C(C)(C)C
"2,2,3,3,5-pentamethylhexane",156.31156,629.72,0.333,443.65,CCCC(C)(C)C(C)C(C)(C)C
"2,2,3,3,6-pentamethylheptane",170.33844,650.3,0.375,466.15,CCC(C)(C)C(C)C(C)(C)C
"2,2,3,3-tetramethyl-1-butanol",130.23032,616.52,0.639,446.0,CC(C(C)(C)C)C(C)(C)C
"2,2,3,3-tetramethyl-4-ethylhexane",170.33844,661.46,0.375,474.15,CC(C(C)C(C)(C)C)C(C)(C)C
"2,2,3,3-tetramethylbutane",114.23092,568.0,0.245,379.44,CCC(C)C(C)C(C)C(C)(C)C
"2,2,3,3-tetramethylheptane",156.31156,638.82,0.361,453.15,CC(C)C(C)C(C)C(C)(C)C
"2,2,3,3-tetramethylhexane",142.28468,623.0,0.366,433.48,CC(C)CC(C)C(C)C(C)(C)C
"2,2,3,3-tetramethyloctane",170.33844,655.89,0.403,473.15,CCC(C)C(C)(CC)C(C)(C)C
"2,2,3,3-tetramethylpentane",128.2578,607.5,0.305,413.44,CCC(C)(C(C)C)C(C)(C)C
"2,2,3,4,4,5-hexamethylhexane",170.33844,672.82,0.347,479.15,CCC(C)C(C)(O)C(C)(C)C
"2,2,3,4,4-pentamethyl-3-ethylpentane",170.33844,688.61,0.318,487.15,CC(C)C(C)(C(C)C)C(C)(C)C
"2,2,3,4,4-pentamethyl-3-pentanol",158.28408,637.91,0.629,467.55,CC(C)C(C)(O)C(C)(C)C
"2,2,3,4,4-pentamethylheptane",170.33844,662.85,0.375,475.15,CCC(C)(CC)C(C)C(C)(C)C
"2,2,3,4,4-pentamethylhexane",156.31156,651.73,0.333,459.15,CCCC(C)C(C)C(C)(C)C
"2,2,3,4,4-pentamethylpentane",142.28468,627.3,0.308,432.45,CCC(C)C(C)C(C)(C)C
"2,2,3,4,5,5-hexamethylhexane",170.33844,650.35,0.347,463.15,CCCCC(C)C(C)C(C)(C)C
"2,2,3,4,5-pentamethylheptane",170.33844,647.63,0.404,467.15,CC(C)C(C)C(C)(C)C
"2,2,3,4,5-pentamethylhexane",156.31156,630.42,0.362,447.15,CCC(C)(C)CC(C)C(C)(C)C
"2,2,3,4,6-pentamethylheptane",170.33844,639.31,0.404,461.15,CC(CC(C)(C)C)C(C)(C)C
"2,2,3,4-tetramethyl-3-ethylhexane",170.33844,665.64,0.375,477.15,CC(C)C(C)CC(C)C(C)(C)C
"2,2,3,4-tetramethyl-3-ethylpentane",156.31156,651.73,0.333,459.15,CCC(C)(CC(C)C)C(C)(C)C
"2,2,3,4-tetramethyl-3-hexanol",158.28408,627.63,0.693,465.15,CC(C)CC(C)(O)C(C)(C)C
"2,2,3,4-tetramethyl-3-isopropylpentane",170.33844,670.01,0.347,477.15,CCC(C(C)C)C(C)C(C)(C)C
"2,2,3,4-tetramethyl-3-pentanol",144.2572,612.5,0.651,447.35,CCC(C)CC(C)C(C)(C)C
"2,2,3,4-tetramethyl-4-ethylhexane",170.33844,671.22,0.375,481.15,CC(C)CC(C)C(C)(C)C
"2,2,3,4-tetramethylheptane",156.31156,629.04,0.391,449.15,CCCC(C)CC(C)C(C)(C)C
"2,2,3,4-tetramethylhexane",142.28468,620.4,0.345,431.96,CC(CCC(C)(C)C)C(C)(C)C
"2,2,3,4-tetramethyloctane",170.33844,645.03,0.432,468.15,CC(C)CCC(C)C(C)(C)C
"2,2,3,4-tetramethylpentane",128.2578,592.6,0.314,406.18,CCC(C)CCC(C)C(C)(C)C
"2,2,3,5,5-pentamethylheptane",170.33844,641.93,0.375,460.15,CC(C)CCCC(C)C(C)(C)C
"2,2,3,5,5-pentamethylhexane",156.31156,623.34,0.333,439.15,CC(C)(Cl)C(C)(Cl)Cl
"2,2,3,5,6-pentamethylheptane",170.33844,640.42,0.404,461.95,CC(I)C(C)(I)I
"2,2,3,5-tetramethyl-3-ethylhexane",170.33844,651.69,0.375,467.15,CC(C)C(C)(C)CO
"2,2,3,5-tetramethyl-3-hexanol",158.28408,692.84,0.693,513.48,CCC(C)C(C)(C)CO
"2,2,3,5-tetramethyl-4-ethylhexane",170.33844,643.47,0.404,464.15,CCCCC(C)(CC)C(C)(C)C
"2,2,3,5-tetramethylheptane",156.31156,626.24,0.391,447.15,CCCC(C)(CC)C(C)(C)C
"2,2,3,5-tetramethylhexane",142.28468,601.3,0.357,421.56,CCCCC(C)(O)C(C)(C)C
"2,2,3,5-tetramethyloctane",170.33844,640.89,0.432,465.15,CCCC(C)(O)C(C)(C)C
"2,2,3,6,6-pentamethylheptane",170.33844,639.14,0.375,458.15,CCCC(C)(C(C)C)C(C)(C)C
"2,2,3,6-tetramethylheptane",156.31156,620.64,0.391,443.15,CCC(C)(O)C(C)(C)C
"2,2,3,6-tetramethyloctane",170.33844,643.65,0.432,467.15,CCCC(CC)C(C)C(C)(C)C
"2,2,3,7-tetramethyloctane",170.33844,643.65,0.432,467.15,CCC(CC)C(C)C(C)(C)C
"2,2,3-trichloro-3-methylbutane",175.48456,635.09,0.345,455.65,CCC(CC)CC(C)C(C)(C)C
"2,2,3-triiodobutane",435.81299,874.42,0.24,566.67,CC(C)C(C)(C)C
"2,2,3-trimethyl-1-butanol",116.20344,596.85,0.662,430.15,CCCCC(C)C(C)(C)C
"2,2,3-trimethyl-1-pentanol",130.23032,611.49,0.706,447.65,CCCC(C)C(C)(C)C
"2,2,3-trimethyl-3-ethylheptane",170.33844,655.89,0.403,473.15,CCCCCCC(C)C(C)(C)C
"2,2,3-trimethyl-3-ethylhexane",156.31156,638.82,0.361,453.15,CCCCCC(C)C(C)(C)C
"2,2,3-trimethyl-3-heptanol",158.28408,616.23,0.724,459.15,CCC(C)C(C)(C)C
"2,2,3-trimethyl-3-hexanol",144.2572,607.47,0.682,446.25,CC1SC1(C)C
"2,2,3-trimethyl-3-isopropylhexane",170.33844,661.46,0.375,474.15,CCC(C)C(C)(C)CC(C)(C)C
"2,2,3-trimethyl-3-pentanol",130.23032,587.7,0.639,425.15,CC(C)C(C)(C)CC(C)(C)C
"2,2,3-trimethyl-4-ethylheptane",170.33844,642.27,0.432,466.15,CC(CC(C)(C)C)CC(C)(C)CC(C)(C)C
"2,2,3-trimethyl-4-ethylhexane",156.31156,629.04,0.391,449.15,CC(C)CC(C)(C)CC(C)(C)C
"2,2,3-trimethyl-5-ethylheptane",170.33844,640.89,0.432,465.15,CCC(C(C)(C)C)C(C)(C)CC
"2,2,3-trimethylbutane",100.20404,531.17,0.25,354.03,CCC(C(C)(C)C)C(C)(C)C
"2,2,3-trimethylheptane",142.28468,611.7,0.378,430.76,CCC(C)(C)C(O)C(C)(C)C
"2,2,3-trimethylhexane",128.2578,588.0,0.332,406.75,CC(C)C(C(C)(C)C)C(C)(C)C
"2,2,3-trimethylnonane",170.33844,648.03,0.461,473.15,CC(C)(C)C(O)C(C)(C)C
"2,2,3-trimethyloctane",156.31156,629.17,0.419,452.15,CCCC(C)(C)CC(C)(C)C
"2,2,3-trimethylpentane",114.23092,563.5,0.297,382.99,CCC(C)(C)CC(C)(C)C
"2,2,3-trimethylthiacyclopropane",102.2004,569.72,0.224,363.94,CCCCC(C)(C)CC(C)(C)C
"2,2,4,4,5-pentamethylheptane",170.33844,654.48,0.375,469.15,CC(C)(C)CC(C)(C)C
"2,2,4,4,5-pentamethylhexane",156.31156,637.53,0.333,449.15,CCC(C)(C)C(C)CC(C)(C)C
"2,2,4,4,6,8,8-heptamethylnonane",226.44596,692.0,0.548,519.5,CC(C)C(C)C(C)CC(C)(C)C
"2,2,4,4,6-pentamethylheptane",170.33844,639.98,0.375,458.75,CCC(C(C)C(C)C)C(C)(C)C
"2,2,4,4-tetramethyl-3-ethylhexane",170.33844,660.06,0.375,473.15,CCC(C)(CC(C)(C)C)C(C)C
"2,2,4,4-tetramethyl-3-ethylpentane",156.31156,643.21,0.333,453.15,CCC(C)C(C)CC(C)(C)C
"2,2,4,4-tetramethyl-3-hexanol",158.28408,624.93,0.693,463.15,CC(C)C(C)CC(C)(C)C
"2,2,4,4-tetramethyl-3-isopropylpentane",170.33844,655.97,0.347,467.15,CCCC(C)C(C)CC(C)(C)C
"2,2,4,4-tetramethyl-3-pentanol",144.2572,602.64,0.651,440.15,CC(CC(C)(C)C)=CC(C)(C)C
"2,2,4,4-tetramethylheptane",156.31156,624.72,0.361,443.15,CC(CC(C)(C)C)CC(C)(C)C
"2,2,4,4-tetramethylhexane",142.28468,610.2,0.344,426.96,CC(C)CC(C)CC(C)(C)C
"2,2,4,4-tetramethyloctane",170.33844,644.8,0.403,465.15,CCC(C)CC(C)CC(C)(C)C
"2,2,4,4-tetramethylpentane",128.2578,574.6,0.314,395.44,CC(C)CCC(C)CC(C)(C)C
"2,2,4,5,5-pentamethylheptane",170.33844,640.53,0.375,459.15,CC(C)C(O)C(C)(C)CO
"2,2,4,5,6-pentamethylheptane",170.33844,635.15,0.404,458.15,CC(C)C(O)C(C)(C)CO.CC(C)C(O)=O
"2,2,4,5-tetramethyl-3-ethylhexane",170.33844,642.08,0.404,463.15,CC(C)CC(C)(C)CO
"2,2,4,5-tetramethyl-4-ethylhexane",170.33844,655.88,0.375,470.15,CCC(CC)(C(C)C)C(C)(C)C
"2,2,4,5-tetramethylheptane",156.31156,619.24,0.391,442.15,CCC(O)(C(C)C)C(C)(C)C
"2,2,4,5-tetramethylhexane",142.28468,598.5,0.363,421.04,CCCC(C)C(CC)C(C)(C)C
"2,2,4,5-tetramethyloctane",170.33844,634.0,0.432,460.15,CCC(C)C(CC)C(C)(C)C
"2,2,4,6,6-pentamethyl-3-heptene",168.32256,656.77,0.548,453.7,CCC(C)C(O)C(C)(C)C
"2,2,4,6,6-pentamethylheptane",170.33844,629.3,0.375,451.1,CCC(C)C(C(C)C)C(C)(C)C
"2,2,4,6-tetramethylheptane",156.31156,609.72,0.391,435.35,CC(C)C(C(C)C)C(C)(C)C
"2,2,4,6-tetramethyloctane",170.33844,631.25,0.432,458.15,CC(C)C(O)C(C)(C)C
"2,2,4,7-tetramethyloctane",170.33844,630.97,0.432,457.95,CC(C)C(=O)C(C)(C)C
"2,2,4-trimethyl-1,3-pentanediol",146.22972,680.0,0.841,505.15,CCCC(C)(CC)CC(C)(C)C
"2,2,4-trimethyl-1,3-pentanediol monoisobutyrate",216.32076,662.0,1.05,524.15,CCC(C)(CC)CC(C)(C)C
"2,2,4-trimethyl-1-pentanol",130.23032,603.02,0.706,441.45,CCCC(C)(O)CC(C)(C)C
"2,2,4-trimethyl-3,3-diethylpentane",170.33844,668.43,0.375,479.15,CCC(CC)C(C)CC(C)(C)C
"2,2,4-trimethyl-3-ethyl-3-pentanol",158.28408,626.28,0.693,464.15,CCCC(C)CC(C)(C)C
"2,2,4-trimethyl-3-ethylheptane",170.33844,640.89,0.432,465.15,CCC(C)CC(C)(C)C
"2,2,4-trimethyl-3-ethylhexane",156.31156,627.64,0.391,448.15,CCCCCC(C)CC(C)(C)C
"2,2,4-trimethyl-3-hexanol",144.2572,598.56,0.716,442.15,CCCCC(C)CC(C)(C)C
"2,2,4-trimethyl-3-isopropylhexane",170.33844,640.7,0.404,462.15,CC(C)CC(C)(C)C
"2,2,4-trimethyl-3-isopropylpentane",156.31156,624.78,0.362,443.15,CC(C)C(C)(C)CCC(C)(C)C
"2,2,4-trimethyl-3-pentanol",130.23032,582.81,0.674,424.15,CCC(CC(C)(C)C)C(C)(C)C
"2,2,4-trimethyl-3-pentanone",128.21444,624.0,0.528,408.25,CC(C)(C)CC(O)C(C)(C)C
"2,2,4-trimethyl-4-ethylheptane",170.33844,647.57,0.403,467.15,CCC(C)(C)CCC(C)(C)C
"2,2,4-trimethyl-4-ethylhexane",156.31156,636.0,0.361,451.15,CC(C)(C)C=CC(C)(C)C
"2,2,4-trimethyl-4-heptanol",158.28408,609.52,0.724,454.15,CC(C)(C)CCC(C)(C)C
"2,2,4-trimethyl-5-ethylheptane",170.33844,634.0,0.432,460.15,CCCC(C)(C)CCC(C)(C)C
"2,2,4-trimethylheptane",142.28468,594.5,0.389,421.46,CC(C)C(C)CCC(C)(C)C
"2,2,4-trimethylhexane",128.2578,573.5,0.321,399.69,CCC(C)C(C)CCC(C)(C)C
"2,2,4-trimethylnonane",170.33844,635.7,0.461,464.15,CC(C)CC(C)CCC(C)(C)C
"2,2,4-trimethyloctane",156.31156,618.73,0.419,444.65,CCC(C)CC(CC)C(C)(C)C
"2,2,4-trimethylpentane",114.23092,543.8,0.303,372.39,CCC(CC(C)C)C(C)(C)C
"2,2,5,5,6-pentamethylheptane",170.33844,640.53,0.375,459.15,CC(C)CC(O)C(C)(C)C
"2,2,5,5-tetramethyl-3-ethylhexane",170.33844,632.16,0.375,453.15,CC(C)CC(C(C)C)C(C)(C)C
"2,2,5,5-tetramethyl-3-hexanol",158.28408,597.94,0.693,443.15,CCC(C)C(CC)CC(C)(C)C
"2,2,5,5-tetramethylheptane",156.31156,619.08,0.361,439.15,CCC(CC(C)(C)C)C(C)C
"2,2,5,5-tetramethylhex-3-ene",140.2688,616.98,0.457,397.45,CCC(C)C(O)CC(C)(C)C
"2,2,5,5-tetramethylhexane",142.28468,581.4,0.377,410.61,CC(C)C(CC(C)(C)C)C(C)C
"2,2,5,5-tetramethyloctane",170.33844,633.71,0.403,457.15,CCC(C)(CC)CCC(C)(C)C
"2,2,5,6-tetramethylheptane",156.31156,619.24,0.391,442.15,CCC(C)CCC(C)(C)C
"2,2,5,6-tetramethyloctane",170.33844,638.14,0.432,463.15,CC(C)CCC(C)(C)C
"2,2,5,7-tetramethyloctane",170.33844,631.25,0.432,458.15,CCCCC(C)CCC(C)(C)C
"2,2,5-trimethyl-3-ethylheptane",170.33844,638.14,0.432,463.15,CCCC(C)CCC(C)(C)C
"2,2,5-trimethyl-3-ethylhexane",156.31156,620.64,0.391,443.15,CC(C)(C)CCCC(C)(C)C
"2,2,5-trimethyl-3-hexanol",144.2572,586.38,0.716,433.15,CCC(C)(C)CCCC(C)(C)C
"2,2,5-trimethyl-3-isopropylhexane",170.33844,628.22,0.404,453.15,CC(C)C(C)CCCC(C)(C)C
"2,2,5-trimethyl-4-ethylheptane",170.33844,632.63,0.432,459.15,CCC(CCC(C)C)C(C)(C)C
"2,2,5-trimethyl-4-ethylhexane",156.31156,615.04,0.391,439.15,CC(C)CCC(O)C(C)(C)C
"2,2,5-trimethyl-4-heptanol",158.28408,607.56,0.757,455.0,CCC(CC(C)C)CC(C)(C)C
"2,2,5-trimethyl-4-isopropylhexane",170.33844,628.22,0.404,453.15,CC(C)CC(O)CC(C)(C)C
"2,2,5-trimethyl-5-ethylheptane",170.33844,640.64,0.403,462.15,CCC(CCC(C)(C)C)C(C)C
"2,2,5-trimethylheptane",142.28468,598.0,0.389,423.96,CC(C)CCCC(C)(C)C
"2,2,5-trimethylhexane",128.2578,569.8,0.345,397.24,CCCC(C)CCCC(C)(C)C
"2,2,5-trimethylnonane",170.33844,635.7,0.461,464.15,CCC(C)CCCC(C)(C)C
"2,2,5-trimethyloctane",156.31156,618.03,0.419,444.15,CC(C)(C)CCCCC(C)(C)C
"2,2,6,6-tetramethylheptane",156.31156,614.86,0.361,436.15,CCC(C)CCCCC(C)(C)C
"2,2,6,6-tetramethyloctane",170.33844,635.1,0.403,458.15,CC(C)CCCCC(C)(C)C
"2,2,6,7-tetramethyloctane",170.33844,639.52,0.432,464.15,CC(C)CCCCCC(C)(C)C
"2,2,6-trimethyl-3-ethylheptane",170.33844,638.14,0.432,463.15,CC(C)C(C)(Br)Br
"2,2,6-trimethyl-3-heptanol",158.28408,618.25,0.757,463.0,CCC(C)(Br)Br
"2,2,6-trimethyl-4-ethylheptane",170.33844,624.36,0.432,453.15,CCCC(C)(Br)Br
"2,2,6-trimethyl-4-heptanol",158.28408,607.56,0.757,455.0,CC(C)(Br)Br
"2,2,6-trimethyl-5-ethylheptane",170.33844,634.0,0.432,460.15,FC(F)(F)C(Cl)Cl
"2,2,6-trimethylheptane",142.28468,593.4,0.396,422.09,CC(C)(C)C(C)(Cl)Cl
"2,2,6-trimethylnonane",170.33844,634.33,0.461,463.15,CC(C)C(C)(Cl)Cl
"2,2,6-trimethyloctane",156.31156,622.21,0.419,447.15,CCC(C)(Cl)Cl
"2,2,7,7-tetramethyloctane",170.33844,635.1,0.403,458.15,CCCCCC(C)(Cl)Cl
"2,2,7-trimethylnonane",170.33844,641.18,0.461,468.15,CCCCC(C)(Cl)Cl
"2,2,7-trimethyloctane",156.31156,616.64,0.419,443.15,CCCC(C)(Cl)Cl
"2,2,8-trimethylnonane",170.33844,641.18,0.461,468.15,CC(C)(Cl)Cl
"2,2-dibromo-3-methylbutane",229.9424,666.02,0.382,442.45,CC(C)(C1CCCCC1)C2CCCCC2
"2,2-dibromobutane",215.91552,636.75,0.369,417.15,CCC(CC)(CC)CO
"2,2-dibromopentane",229.9424,661.45,0.414,443.15,CC(C)C(C)(F)F
"2,2-dibromopropane",201.88864,607.05,0.325,388.25,CCC(C)(F)F
"2,2-dichloro-1,1,1-trifluoroethane",152.9305496,456.94,0.282,301.05,CCCC(C)(F)F
"2,2-dichloro-3,3-dimethylbutane",155.06668,633.09,0.397,444.73,CC(C)(F)F
"2,2-dichloro-3-methylbutane",141.0398,633.42,0.262,418.0,CC(C)C(C)(I)I
"2,2-dichlorobutane",127.01292,578.17,0.247,376.15,CCC(C)(I)I
"2,2-dichloroheptane",169.09356,654.02,0.442,454.15,CCCC(C)(I)I
"2,2-dichlorohexane",155.06668,633.09,0.397,444.73,CC(C)(I)I
"2,2-dichloropentane",141.0398,601.15,0.291,400.15,CCCC(CC)(CC)C(C)(C)C
"2,2-dichloropropane",112.98604,539.46,0.198,342.46,CC(O)C(C)(C)CO
"2,2-dicyclohexylpropane",208.38732,766.86,0.471,559.15,CC(C)(CN)CN
"2,2-diethyl-1-butanol",130.23032,605.76,0.738,446.0,CC(C)(CO)CCO
"2,2-difluoro-3-methylbutane",108.1312064,467.07,0.261,308.67,CCC(C)(C)CO
"2,2-difluorobutane",94.1043264,466.65,0.246,304.05,CCCCCC(C)(C)CO
"2,2-difluoropentane",108.1312064,499.35,0.29,332.85,CCCCC(C)(C)CO
"2,2-difluoropropane",80.0774464,428.96,0.202,272.75,CCCCCCC(C)(C)CO
"2,2-diiodo-3-methylbutane",323.94334,759.04,0.242,496.41,CCCC(C)(C)CO
"2,2-diiodobutane",309.91646,735.41,0.227,473.97,CC(C)(C)CS
"2,2-diiodopentane",323.94334,752.99,0.271,496.85,CC(C)(C)CO
"2,2-diiodopropane",295.88958,709.92,0.183,446.15,CCC(CC)(CC)C(C)(C)C
"2,2-dimethyl,3,3-diethylhexane",170.33844,655.89,0.403,473.15,CCC(CC)C(CC)C(C)(C)C
"2,2-dimethyl-1,3-butanediol",118.17596,630.45,1.105,475.55,CC(=O)C(C)(C)C
"2,2-dimethyl-1,3-propanediamine",102.17964,637.67,0.591,426.15,CCC(CC)C(C)(C)CO
"2,2-dimethyl-1,4-butanediol",118.17596,636.35,1.105,480.0,CCC(O)(CC)C(C)(C)C
"2,2-dimethyl-1-butanol",102.17656,589.0,0.518,409.95,CCCCC(CC)C(C)(C)C
"2,2-dimethyl-1-heptanol",144.2572,623.0,0.78,465.15,CCCCCC(CC)C(C)(C)C
"2,2-dimethyl-1-hexanol",130.23032,605.29,0.738,445.65,CCC(CC)C(C)(C)C
"2,2-dimethyl-1-octanol",158.28408,636.2,0.819,481.15,CCCCC(O)C(C)(C)C
"2,2-dimethyl-1-pentanol",116.20344,587.65,0.695,426.15,CCCC(O)C(C)(C)C
"2,2-dimethyl-1-propanethiol",104.21628,570.0,0.281,376.83,CCCC(=O)C(C)(C)C
"2,2-dimethyl-1-propanol",88.14968,550.0,0.604,386.25,CCCCC(C(C)C)C(C)(C)C
"2,2-dimethyl-3,3-diethylpentane",156.31156,651.51,0.361,462.15,CCCC(C(C)C)C(C)(C)C
"2,2-dimethyl-3,4-diethylhexane",170.33844,638.14,0.432,463.15,CCCCCC(O)C(C)(C)C
"2,2-dimethyl-3-butanone",100.16068,576.61,0.362,394.21,CCCCC#CC(C)(C)C
"2,2-dimethyl-3-ethyl-1-pentanol",144.2572,620.7,0.748,461.0,CCC(O)C(C)(C)C
"2,2-dimethyl-3-ethyl-3-pentanol",144.2572,608.69,0.682,447.15,CCC(=O)C(C)(C)C
"2,2-dimethyl-3-ethylheptane",156.31156,624.99,0.419,449.15,CCCC(C(C)(C)C)C(C)(C)C
"2,2-dimethyl-3-ethyloctane",170.33844,642.55,0.461,469.15,CCSC(C)(C)C
"2,2-dimethyl-3-ethylpentane",128.2578,590.0,0.335,406.99,CCC(CC)(CC)CC(C)(C)C
"2,2-dimethyl-3-heptanol",144.2572,607.23,0.748,451.0,CCC(CC)C(O)C(C)(C)C
"2,2-dimethyl-3-hexanol",130.23032,586.35,0.706,429.25,CCCC(CC)CC(C)(C)C
"2,2-dimethyl-3-hexanone",128.21444,624.0,0.528,419.15,CCCCC(CC)CC(C)(C)C
"2,2-dimethyl-3-isopropylheptane",170.33844,638.14,0.432,463.15,CCCC(O)CC(C)(C)C
"2,2-dimethyl-3-isopropylhexane",156.31156,623.44,0.391,445.15,CCCC(CC(C)(C)C)C(C)C
"2,2-dimethyl-3-octanol",158.28408,620.48,0.788,467.0,CCCCC(O)CC(C)(C)C
"2,2-dimethyl-3-octyne",138.25292,642.22,0.417,443.65,CCCC(CCC)CC(C)(C)C
"2,2-dimethyl-3-pentanol",116.20344,567.71,0.662,409.15,CCC(CC)CCC(C)(C)C
"2,2-dimethyl-3-pentanone",114.18756,580.9,0.387,398.15,CCCC(CC)CCC(C)(C)C
"2,2-dimethyl-3-tert-butylhexane",170.33844,654.48,0.375,469.15,CCC(CC)CCCC(C)(C)C
"2,2-dimethyl-3-thiapentane",118.24316,588.0,0.286,393.56,CC\C=C/C(C)(C)C
"2,2-dimethyl-4,4-diethylhexane",170.33844,655.89,0.403,473.15,CC/C=C/C(C)(C)C
"2,2-dimethyl-4-ethyl-3-hexanol",158.28408,614.44,0.757,460.15,CCC(C)(C)C=O
"2,2-dimethyl-4-ethylheptane",156.31156,613.86,0.419,441.15,CCC(C)(C)C
"2,2-dimethyl-4-ethyloctane",170.33844,630.23,0.461,460.15,CCC(C)(C)C#N
"2,2-dimethyl-4-heptanol",144.2572,602.05,0.748,447.15,CCC(C)(C)C(O)=O
"2,2-dimethyl-4-isopropylheptane",170.33844,627.12,0.432,455.15,CCCCCCCCC(C)(C)C
"2,2-dimethyl-4-octanol",158.28408,615.36,0.788,463.15,CCCCCCCCCCC(C)(C)C
"2,2-dimethyl-4-propylheptane",170.33844,626.12,0.461,457.15,CCCCCCCCCCCCCCCC(C)(C)C
"2,2-dimethyl-5-ethylheptane",156.31156,619.43,0.419,445.15,CCCCCC(C)(C)C
"2,2-dimethyl-5-ethyloctane",170.33844,632.97,0.461,462.15,CCCCCCCCCCCCCCC(C)(C)C
"2,2-dimethyl-6-ethyloctane",170.33844,638.44,0.461,466.15,CCCCC(C)(C)C
"2,2-dimethyl-cis-3-hexene",112.21504,559.69,0.287,378.58,CCCCCCCC(C)(C)C
"2,2-dimethyl-trans-3-hexene",112.21504,552.92,0.287,374.0,CCCCCCCCCCCCCCCCC(C)(C)C
"2,2-dimethylbutanal",100.16068,558.82,0.37,377.15,CCCCCCC(C)(C)C
"2,2-dimethylbutane",86.17716,489.0,0.234,322.88,CCCCCCC(C)(C)C(O)=O
"2,2-dimethylbutanenitrile",97.16008,588.3,0.379,402.15,CC1(C)CO1
"2,2-dimethylbutanoic acid",116.16008,653.0,0.567,460.15,CCCCCCCCCCCCCC(C)(C)C
"2,2-dimethyldecane",170.33844,645.65,0.489,474.15,CCCC(C)(C)C
"2,2-dimethyldodecane",198.3922,679.98,0.566,513.15,CC(C)(C)C=O
"2,2-dimethylheptadecane",268.5266,746.87,0.701,592.15,CC(C)(C)C#N
"2,2-dimethylheptane",128.2578,576.7,0.391,405.84,CC(C)(C)C(O)=O
"2,2-dimethylhexadecane",254.49972,734.97,0.683,578.15,CCCC(=O)OCC(C)(C)C
"2,2-dimethylhexane",114.23092,549.8,0.338,379.99,CC(C)(C)COC=O
"2,2-dimethylnonane",156.31156,626.62,0.448,453.15,CCC(=O)OCC(C)(C)C
"2,2-dimethyloctadecane",282.55348,759.27,0.713,606.15,CC(C)(C)CN
"2,2-dimethyloctane",142.28468,602.0,0.429,430.05,CCCCCCCCCCCCC(C)(C)C
"2,2-dimethyloctanoic acid",172.2676,713.0,0.877,473.73,CC1(C)CCCO1
"2,2-dimethyloxirane",72.10692,521.0,0.171,324.65,CC1(C)CCCCS1
"2,2-dimethylpentadecane",240.47284,722.25,0.66,563.15,CC1(C)CCCS1
"2,2-dimethylpentane",100.20404,520.5,0.287,352.34,CC1(C)CS1
"2,2-dimethylpropanal",86.1338,525.74,0.325,347.15,CCCCCCCCCCCC(C)(C)C
"2,2-dimethylpropanenitrile",83.1332,565.78,0.335,378.75,CCCCCCCCCC(C)(C)C
"2,2-dimethylpropanoic acid",102.1332,632.0,0.513,436.95,CC(C)(c1ccccc1)c2ccccc2
"2,2-dimethylpropyl butanoate",158.24072,607.0,0.822,460.31,CCCC(=O)OCC(C)(C)C
"2,2-dimethylpropyl formate",116.16008,575.0,0.348,390.97,CC(C)C(C)(C)C(C)(C)C(C)C
"2,2-dimethylpropyl propanoate",144.21384,593.0,0.677,437.43,CCCC(C)(C)C(C)(C)C(C)C
"2,2-dimethylpropylamine",87.16496,517.1,0.384,350.15,CCC(C)(C)C(C)(C)C(C)C
"2,2-dimethyltetradecane",226.44596,708.68,0.632,547.15,CCC(C)C(C)C(C)(C)C(C)C
"2,2-dimethyltetrahydrofuran",100.16068,563.41,0.269,365.35,CC(C)C(C)C(C)(C)C(C)C
"2,2-dimethylthiacyclohexane",130.25416,657.02,0.249,427.18,CC(C)CC(C)C(C)(C)C(C)C
"2,2-dimethylthiacyclopentane",116.22728,623.18,0.235,400.03,CC(C)C(C)(C)C(C)(C)O
"2,2-dimethylthiacyclopropane",88.17352,574.84,0.206,359.15,CCC(C)(CC)C(C)(C)C(C)C
"2,2-dimethyltridecane",212.41908,694.17,0.601,530.15,CCCC(C)C(C)(C)C(C)C
"2,2-dimethylundecane",184.36532,663.4,0.529,494.15,CCC(C)C(C)(C)C(C)C
"2,2-diphenylpropane",196.29204,788.27,0.43,554.34,CCCCC(C)C(C)(C)C(C)C
"2,3'-trimethylbiphenyl",182.26516,781.7,0.495,547.15,CC(C)C(C)(C)C(C)C
"2,3,3,4,4,5-hexamethylhexane",170.33844,672.82,0.347,479.15,CCC(C)(C)CC(C)(C)C(C)C
"2,3,3,4,4-pentamethylheptane",170.33844,664.25,0.375,476.15,CC(C)C(C)CC(C)(C)C(C)C
"2,3,3,4,4-pentamethylhexane",156.31156,653.15,0.333,460.15,CCC(C(C)C)C(C)(C)C(C)C
"2,3,3,4,5-pentamethylheptane",170.33844,655.95,0.404,473.15,CCC(C)CC(C)(C)C(C)C
"2,3,3,4,5-pentamethylhexane",156.31156,640.29,0.362,454.15,CC(C)CC(C)(C)C(C)C
"2,3,3,4,6-pentamethylheptane",170.33844,649.01,0.404,468.15,CCCC(C)CC(C)(C)C(C)C
"2,3,3,4-tetramethyl-2-pentanol",144.2572,620.23,0.651,453.0,CC(C)CCC(C)(C)C(C)C
"2,3,3,4-tetramethyl-4-ethylhexane",170.33844,671.22,0.375,481.15,CCC(C)CCC(C)(C)C(C)C
"2,3,3,4-tetramethylheptane",156.31156,637.45,0.391,455.15,CC(C)CCCC(C)(C)C(C)C