name,molweight,critical temperature (K),acentric factor,boiling point (K),SMILES
"2-amino-1-butanol, (±)-",89.13748,571.82,0.711,451.15,-
2-amino-1-methoxypropane,89.13748,548.0,0.423,370.0,CC(C)CC(C)N
"2-amino-1-propanol, (±)",75.1106,631.0,0.737,447.65,CC(C)CCCC(C)N
"2-amino-2,3-dimethylbutane",101.19184,556.88,0.356,377.65,CCC(N)CO
"2-amino-2-methyl-1,3-propanediol",105.13688,715.0,1.046,525.4,CC(O)OCCN
2-amino-2-methyl-1-propanol,89.13748,571.82,0.711,438.65,CCCCC(C)N
2-amino-2-methylpentane,101.19184,555.56,0.387,377.15,CCCCCCC(C)N
"2-amino-3,3-dimethyl butane",101.19184,557.1,0.356,375.15,CC(N)CO
2-amino-3-methyl-1-butanol,103.16436,626.41,0.841,435.3,CCC(Br)=C
"2-amino-3-methyl-1-butanol, (±)",103.16436,626.41,0.841,435.3,CCCCCCCCC(Br)=C
2-amino-3-methylpentane,101.19184,596.83,0.419,408.33,CCCC(Br)=C
2-amino-3-pentanol,103.16436,626.41,0.841,444.15,CC(Br)=C
"2-amino-4-methyl-1-pentanol, (±)",117.19124,681.0,0.97,472.15,CC(C)C(C)(C)Br
2-amino-4-methylpentane,101.19184,557.83,0.419,381.65,CC(C)CC(C)N
2-amino-6-methylheptane,129.2456,601.45,0.5,428.15,CCC(C)(C)Br
2-aminobutan-1-ol,89.13748,571.82,0.711,450.15,CCCC(C)(C)Br
2-aminoethoxyethanol,105.13688,699.0,0.969,514.0,CC(C)(C)Br
2-aminohexane,101.19184,584.76,0.451,403.15,CCC=C(C)Br
2-aminooctane,129.2456,601.45,0.5,438.15,CC(Br)C(C)(C)C
2-aminopropanol,75.1106,631.0,0.737,447.15,CC(C)C(Br)=C
2-bromo-1-butene,135.00358,548.16,0.297,354.15,CC(C)=C(C)Br
2-bromo-1-decene,219.16486,683.71,0.579,498.15,CC(C)C(C)Br
2-bromo-1-pentene,149.03046,576.34,0.341,381.15,CCC(C)C(C)Br
2-bromo-1-propene,120.9767,510.32,0.253,321.55,CC(C)CC(C)Br
"2-bromo-2,3-dimethylbutane",165.07322,595.92,0.341,406.15,C/C=C(/C)Br
2-bromo-2-butene; (cis+trans),135.00358,568.74,0.301,361.65,-
2-bromo-2-methylbutane,151.04634,581.23,0.296,381.15,C\C=C(/C)Br
2-bromo-2-methylpentane,165.07322,595.92,0.341,415.65,CCCC(C)(C)Br
2-bromo-2-methylpropane,137.01946,541.05,0.252,346.4,CCC(C)Br
2-bromo-2-pentene,149.03046,586.22,0.334,383.15,CC/C=C(/C)\Br
"2-bromo-3,3-dimethylbutane",165.07322,609.3,0.311,405.15,CCCCCCCCC(C)Br
2-bromo-3-methyl-1-butene,149.03046,570.77,0.311,374.15,CCCCCCCCCCC(C)Br
2-bromo-3-methyl-2-butene,149.03046,598.09,0.305,391.15,CCCCCC(C)Br
2-bromo-3-methylbutane,151.04634,587.23,0.328,388.45,CCCCC(C)Br
2-bromo-3-methylpentane,165.07322,594.59,0.373,401.96,CCCCCCC(C)Br
2-bromo-4-methylpentane,165.07322,597.83,0.373,404.15,CCCC(C)Br
2-bromo-cis-2-butene,135.00358,557.88,0.286,358.95,CC(C)Br
2-bromo-cis-2-pentene,149.03046,584.62,0.331,385.15,CCC(C)N
2-bromo-trans-2-butene,135.00358,571.87,0.286,367.95,CCC(C)S
2-bromo-trans-2-pentene,149.03046,584.62,0.331,385.15,CC=CCOC(C)=O
2-bromobutane,137.01946,567.0,0.268,364.37,CCC(C)Br
"2-bromobutane, (±)",137.01946,561.05,0.289,364.45,CC=CC#N
2-bromodecane,221.18074,698.43,0.611,513.75,CCC=Cc1ccccc1
2-bromododecane,249.2345,726.55,0.69,549.05,CCCCOCCO
2-bromoheptane,179.1001,651.0,0.444,439.15,CCCCOCCOC(C)=O
2-bromohexane,165.07322,612.0,0.404,417.05,CCCCC1C(C)CCCC1(C)C
"2-bromooctane, (±)-",193.12698,665.09,0.524,461.65,CCCCCCC(CO)CCCC
2-bromopentane,151.04634,585.36,0.359,390.55,CCCCc1cc(C)ccc1O
2-bromopropane,122.99258,532.0,0.243,332.56,CCCCC1CCc2ccccc2C1
"2-butanamine, (.+/-.)-",73.13808,503.5,0.331,335.88,CCCCc1ccc2ccccc2c1
2-butanethiol,90.1894,553.0,0.242,358.15,CCCCCCC(CCCC)C(O)=O
2-buten-1-yl acetate,114.1442,569.0,0.434,405.15,CCCCc1ccccc1O
2-butene; (cis+trans),56.10752,425.43,0.199,275.5,FC(Cl)C(F)(F)F
2-butenenitrile,67.09044,573.0,0.364,393.65,FC(F)(F)CCl
2-butenylbenzene,132.20528,682.45,0.356,449.15,FC(F)CCl
2-butoxyethanol,118.17596,633.9,0.521,444.47,FC(F)=CCl
2-butoxyethyl acetate,160.21324,641.2,0.56,465.15,CCC(Cl)=C
"2-butyl-1,1,3-trimethylcyclohexane",182.34944,708.63,0.498,510.52,CCCCCC(Cl)=C
2-butyl-1-octanol,186.33784,712.9,0.635,519.65,CCCCC(Cl)=C
2-butyl-4-methylphenol,164.24744,751.0,0.569,501.15,CCCCCCC(Cl)=C
"2-butyl-[1,2,3,4-tetrahydronaphthalene]",188.3128,764.18,0.511,551.65,CCCC(Cl)=C
2-butylnaphthalene,184.28104,780.96,0.533,562.16,CC(Cl)=C
2-butyloctanoic acid,200.32136,734.0,0.967,503.15,CC(C)(C)C(C)(C)Cl
2-butylphenol,150.22056,713.69,0.542,508.15,CC(C)C(C)(C)Cl
"2-chloro-1,1,1,2-tetrafluoroethane",136.4762528,395.65,0.288,261.05,CCC(C)C(C)(C)Cl
"2-chloro-1,1,1-trifluoroethane",118.4857896,430.0,0.247,279.25,CC(C)(C)CC(C)(C)Cl
"2-chloro-1,1-difluoroethane",100.4953264,477.91,0.271,308.25,CC(C)CC(C)(C)Cl
"2-chloro-1,1-difluoroethylene",98.4794464,400.55,0.212,254.55,CC(C)CCC(C)(C)Cl
2-chloro-1-butene,90.55228,515.18,0.237,331.65,CC=C(C)Cl
2-chloro-1-heptene,132.63292,613.52,0.385,412.15,CCCCCC(C)(C)Cl
2-chloro-1-hexene,118.60604,583.61,0.341,386.15,CCCCC(C)(C)Cl
2-chloro-1-octene,146.6598,640.48,0.43,442.15,CCCC(C)(C)Cl
2-chloro-1-pentene,104.57916,547.93,0.281,361.15,CC(C)(C)Cl
2-chloro-1-propene,76.5254,478.0,0.152,295.8,CCCCCC=C(C)Cl
"2-chloro-2,3,3-trimethylbutane",134.6488,621.08,0.418,413.42,CCC=C(C)Cl
"2-chloro-2,3-dimethylbutane",120.62192,581.14,0.254,385.15,CC(Cl)C(C)(C)C
"2-chloro-2,3-dimethylpentane",134.6488,621.08,0.418,413.42,CC(C)C(Cl)=C
"2-chloro-2,4,4-trimethylpentane",148.67568,642.41,0.462,445.15,CC(C)=C(C)Cl
"2-chloro-2,4-dimethylpentane",134.6488,621.08,0.418,401.15,CCC(C)C(C)Cl
"2-chloro-2,5-dimethylhexane",148.67568,642.41,0.462,442.45,CC(C)CC(C)Cl
2-chloro-2-butene,90.55228,532.24,0.242,337.65,CC(C)CCC(C)Cl
2-chloro-2-methylheptane,148.67568,642.41,0.462,442.45,CC(C)CCCC(C)Cl
2-chloro-2-methylhexane,134.6488,621.08,0.418,408.15,CCCCC(C)(C)Cl
2-chloro-2-methylpentane,120.62192,575.46,0.283,384.65,CCCC(C)(C)Cl
2-chloro-2-methylpropane,92.56816,507.0,0.191,323.75,CC(C)(C)Cl
2-chloro-2-octene,146.6598,640.48,0.43,440.65,-
2-chloro-2-pentene,104.57916,561.69,0.275,369.15,CCC(C)Cl
"2-chloro-3,3-dimethylbutane",120.62192,579.63,0.254,384.15,CCC(C)Cl
2-chloro-3-methyl-1-butene,104.57916,555.9,0.252,363.15,OCCCl
2-chloro-3-methyl-2-butene,104.57916,563.35,0.247,367.15,CCCCCC(C)Cl
2-chloro-3-methylpentane,120.62192,563.86,0.314,380.0,CCCCC(C)Cl
2-chloro-4-methylpentane,120.62192,572.99,0.314,386.15,Clc1ccc2ccccc2c1
2-chloro-5-methylhexane,134.6488,621.08,0.418,411.15,CCCCCCCC(C)Cl
2-chloro-6-methylheptane,148.67568,642.41,0.462,442.45,CCCCCCC(C)Cl
2-chloro-cis-2-butene,90.55228,530.28,0.227,339.95,CC(C)Cl
2-chloro-cis-2-pentene,104.57916,556.15,0.271,365.15,CCCCCCCCC(C)S
2-chloro-trans-2-butene,90.55228,523.73,0.227,335.75,CCCCCCCCC(C)O
2-chloro-trans-2-pentene,104.57916,556.15,0.271,365.15,-
2-chlorobutane,92.56816,520.6,0.291,341.25,CCCCCCCCC(C)=O
2-chlorobutane,92.56816,522.7,0.253,341.35,CCCCCCCCCCC1CCc2ccccc2C1
2-chloroethanol,80.5138,585.0,0.658,401.75,CCCCCCCCCCc1ccc2ccccc2c1
2-chloroheptane,134.6488,621.08,0.418,413.42,CCCCCCCC#CC
2-chlorohexane,120.62192,584.57,0.343,397.15,CCN(CC)CCO
2-chloronaphthalene,162.61828,785.0,0.383,529.15,CN(C)C(C)(C)CO
2-chlorononane,162.70256,661.88,0.505,463.15,CCCCCCCCCCC(C)S
2-chlorooctane,148.67568,642.41,0.462,445.15,CCCCCCCCCCC(C)O
2-chloropropane,78.54128,489.0,0.199,308.85,CCCCCCCCCCC(C)=O
2-decanethiol,174.35068,690.0,0.506,501.45,CCCCCCCCCCCCc1ccc2ccccc2c1
2-decanol,158.28408,673.2,0.575,490.15,CCCCCCCCCC#CC
"2-decanol, (±)",158.28408,629.0,0.793,484.15,CCCCCCCCCCCCCCCCCCC(C)S
2-decanone,156.2682,656.59,0.612,483.35,CCCCCCCCCCCCCCCCCCC(C)O
"2-decyl-[1,2,3,4-tetrahydronaphthalene]",272.47408,816.73,0.73,636.15,CCCCCCCCCCCCCCCCCCC(C)=O
2-decylnaphthalene,268.44232,843.81,0.762,656.15,CCCCCCCCCCCCCCCCCC#CC
2-decyne,138.25292,650.86,0.412,457.75,Cc1cccc(C)c1C=C
2-diethylaminoethanol,117.19124,592.0,0.782,436.15,Cc1ccc(C)c(C=C)c1
2-dimethylamino-2-methyl-1-propanol,117.19124,681.0,0.97,433.15,CCOC(C)CO
2-dodecanethiol,202.40444,720.0,0.593,538.35,CCOC(C)(C)CC
2-dodecanol,186.33784,704.8,0.631,525.15,CCOCCO
2-dodecanone,184.32196,687.46,0.691,519.85,CCOCCOC(C)=O
2-dodecylnaphthalene,296.49608,862.23,0.807,682.15,CCC(CC)C(O)=O
2-dodecyne,166.30668,686.26,0.498,499.15,CCc1ccccc1SC
2-eicosanethiol,314.61948,803.0,0.833,651.15,CCC(=C)C=C
2-eicosanol,298.55288,791.2,0.899,639.15,CCC(CC)CO
2-eicosanone,296.537,773.72,0.84,625.0,CCC(=C)CC
2-eicosyne,278.52172,786.42,0.744,625.15,CCCCCC(CC)CO
"2-ethenyl-1,3-dimethylbenzene",132.20528,679.34,0.375,465.57,CCCCC(CC)CO
"2-ethenyl-1,4-dimethylbenzene",132.20528,680.23,0.375,466.18,CCCCC(=C)CC
2-ethoxy-1-propanol,104.14908,582.0,0.783,413.65,CCCCCCC(CC)CO
2-ethoxy-2-methylbutane,116.20344,546.0,0.338,374.57,CCCC(CC)CO
2-ethoxyethanol,90.1222,569.0,0.758,408.15,CCCC(=C)CC
2-ethoxyethyl acetate,132.15948,607.3,0.552,429.74,CCCCCC(C)(O)CC
2-ethyl butyric acid,116.16008,655.0,0.633,466.95,CCCC=C(CC)C=O
2-ethyl-(1-thiaethyl)-benzene,152.26028,730.87,0.416,501.15,CCC(C)(CC)C(O)=O
"2-ethyl-1,3-butadiene",82.1454,531.56,0.251,348.15,CCCC(C)C(CC)C(O)=O
2-ethyl-1-butanol,102.17656,580.0,0.714,419.65,CCc1cc(C)ccn1
2-ethyl-1-butene,84.16128,511.0,0.252,337.82,CCc1cccc(C)c1N
2-ethyl-1-heptanol,144.2572,625.91,0.846,472.0,CCc1cccc(C)n1
2-ethyl-1-hexanol,130.23032,640.6,0.556,457.75,CCC1CCc2ccccc2C1
2-ethyl-1-hexene,112.21504,569.0,0.358,393.15,CCCCC(=C)CC
2-ethyl-1-octanol,158.28408,631.54,0.883,482.0,CCc1c(C)cccc1C
2-ethyl-1-pentanol,116.20344,598.5,0.764,439.15,CCc1cc(C)ccc1C
2-ethyl-1-pentene,98.18816,543.0,0.307,367.15,CCCC(=C)CC
2-ethyl-2-heptanol,144.2572,609.4,0.78,455.0,CCc1ccccc1c2ccccc2
2-ethyl-2-hexenal,126.19856,636.0,0.454,448.72,CCC(CC)C=O
2-ethyl-2-methylbutanoic acid,130.18696,680.0,0.717,480.15,CCC(CC)C#N
2-ethyl-3-methylhexanoic acid,158.24072,703.0,0.831,504.15,CCC(CC)COC(C)=O
2-ethyl-4-methylpyridine,121.18208,653.0,0.376,447.15,CCc1ccccc1Cc2ccccc2
2-ethyl-6-methylaniline,135.20896,705.58,0.413,504.15,CCc1occc1
2-ethyl-6-methylpyridine,121.18208,653.0,0.376,433.65,CCCCCC(CC)C(O)=O
"2-ethyl-[1,2,3,4-tetrahydronaphthalene]",160.25904,739.79,0.424,515.75,CCCCC(CC)C=O
2-ethyl-cis-decahydronaphthalene,166.30668,726.73,0.374,508.15,CCCCC(CC)C(O)=O
2-ethyl-m-xylene,134.22116,671.0,0.407,463.19,CCCCC(CC)COC(C)=O
2-ethyl-p-xylene,134.22116,663.0,0.411,459.98,CCCCC(CC)COC(=O)C=C
2-ethyl-trans-decahydronaphthalene,166.30668,716.72,0.374,501.15,CCCCC(CC)CBr
2-ethylbiphenyl,182.26516,777.4,0.45,539.12,CCCCC(CC)CI
2-ethylbutanal,100.16068,568.76,0.433,389.95,CCC(C)CCCCCl
2-ethylbutanenitrile,97.16008,602.56,0.442,418.15,CCCCC(CC)CN
2-ethylbutyl acetate,144.21384,618.0,0.54,435.65,CCc1ccc2ccccc2c1
2-ethyldiphenylmethane,196.29204,785.23,0.522,564.01,CCC1=CC=CC=C1CC2=CC=CC=C2
2-ethylfuran,96.12892,557.25,0.333,365.65,CCc1ccccn1
2-ethylheptanoic acid,158.24072,703.0,0.831,456.91,CCc1ccc2ccccc2n1
2-ethylhexanal,128.21444,607.0,0.52,433.8,CCC1CCCO1
2-ethylhexanoic acid,144.21384,673.2,0.822,501.15,CCC1CCCCS1
2-ethylhexyl acetate,172.2676,642.4,0.599,472.92,CCC1CCCS1
2-ethylhexyl acrylate,184.2786,655.0,0.673,489.15,CCC1CS1
2-ethylhexyl bromide,193.12698,665.09,0.524,467.8,CCc1sccc1
2-ethylhexyl iodide,240.12745,665.98,0.857,490.71,CCC(F)=C
2-ethylhexyl-6-chloride,148.67568,642.41,0.462,442.45,CCCC(F)=C
2-ethylhexylamine,129.2456,601.45,0.5,442.35,CC(F)=C
2-ethylnaphthalene,156.22728,771.0,0.421,531.05,CC(C)C(C)(C)F
"2-ethylpentanoic acid, (±)",130.18696,680.0,0.717,482.35,CCCC(C)(C)F
2-ethylpyridine,107.1552,636.2,0.357,422.55,CC(C)(C)F
2-ethylquinoline,157.21508,775.1,0.497,518.65,CC(F)C(C)(C)C
2-ethyltetrahydrofuran,100.16068,580.07,0.308,382.15,CC(C)C(F)=C
2-ethylthiacyclohexane,130.25416,646.42,0.288,426.94,CC(C)=C(C)F
2-ethylthiacyclopentane,116.22728,659.28,0.273,430.15,CCC(C)C(C)F
2-ethylthiacyclopropane,88.17352,594.72,0.244,378.15,CC(C)CC(C)F
2-ethylthiophene,112.19552,623.6,0.298,407.15,CCC1=CC=CS1
2-fluoro-1-butene,74.0979832,462.01,0.237,297.65,CCC(=C)F
2-fluoro-1-pentene,88.1248632,469.43,0.281,309.63,CCC(C)F
2-fluoro-1-propene,60.0711032,396.62,0.193,249.15,CCCCC(C)F
"2-fluoro-2,3-dimethylbutane",104.1676232,508.31,0.282,340.0,CC(C)F
2-fluoro-2-methylpentane,104.1676232,523.26,0.282,350.0,OC(=O)c1ccccc1C=O
2-fluoro-2-methylpropane,76.1138632,446.83,0.194,285.25,CCCCCCCCCCCCCCCC(C)S
"2-fluoro-3,3-dimethylbutane",104.1676232,517.4,0.253,343.15,CCCCCCCCCCCCCCCC(C)O
2-fluoro-3-methyl-1-butene,88.1248632,472.95,0.251,309.19,CCCCCCCCCCCCCCCC(C)=O
2-fluoro-3-methyl-2-butene,88.1248632,486.02,0.246,316.99,CCCCCCCCCCCCCCC#CC
2-fluoro-3-methylpentane,104.1676232,519.0,0.313,350.0,CCCCCC(C)N
2-fluoro-4-methylpentane,104.1676232,519.0,0.313,350.0,CCCCCC(C)S
2-fluoro-cis-2-pentene,88.1248632,482.63,0.271,317.11,CCCCCC(C)O
2-fluoro-trans-2-pentene,88.1248632,482.63,0.271,317.11,-
2-fluorobutane,76.1138632,458.55,0.254,298.25,CCCCCC(C)=O
2-fluorohexane,104.1676232,528.59,0.342,359.35,CCCCC=CC
2-fluoropropane,62.0869832,415.68,0.204,263.81,CCCCCCCC1CCc2ccccc2C1
2-formylbenzoic acid,150.13384,772.0,0.819,561.0,CCCCCCCc1ccc2ccccc2c1
2-heptadecanethiol,272.53884,777.0,0.797,614.15,CCCCC#CC
2-heptadecanol,256.47224,764.4,0.801,601.15,CCCCCCCCCCCCCCC(C)S
2-heptadecanone,254.45636,745.97,0.827,592.15,CCCCCCCCCCCCCCC(C)O
2-heptadecyne,236.44108,753.8,0.68,584.15,CCCCCCCCCCCCCCC(C)=O
2-heptanamine,115.21872,565.35,0.409,415.15,CCCCCCCCCCCCCC#CC
2-heptanethiol,132.27004,632.0,0.388,436.75,CCCCCC(C)S
2-heptanol,116.20344,608.32,0.557,432.35,CCCCC(C)S
"2-heptanol, (±)",116.20344,587.2,0.709,432.15,CCCCC(C)O
2-heptanone,114.18756,611.4,0.419,424.18,CCCCCC(=O)C
2-heptene,98.18816,537.61,0.294,371.4,CCCCC(C)=O
"2-heptyl-[1,2,3,4-tetrahydronaphthalene]",230.39344,793.72,0.633,598.15,-
2-heptylnaphthalene,226.36168,814.1,0.662,612.15,CCCCCCCCC(CO)CCCCCC
2-heptyne,96.17228,581.9,0.279,385.15,CCCCCCC1CCc2ccccc2C1
2-hexadecanethiol,258.51196,768.0,0.753,600.15,CCCCCCCCC(CCCCCC)C(O)=O
2-hexadecanol,242.44536,754.2,0.764,587.15,CCCCCCc1ccc2ccccc2c1
2-hexadecanone,240.42948,736.51,0.81,580.15,CCCCCCc1ccccc1O
2-hexadecyne,222.4142,742.19,0.65,569.15,CCCC#CC
"2-hexanamine, (±)",101.19184,559.92,0.404,390.65,CC(C)(O)C(O)=O
2-hexanethiol,118.24316,607.0,0.339,412.05,OC(C=C)C#N
2-hexanol,102.17656,585.9,0.556,413.04,OCCOC(=O)C=C
"2-hexanol, (R)",102.17656,581.8,0.582,410.15,CCC(I)=C
2-hexanone,100.16068,587.61,0.385,400.7,CCCC(I)=C
2-hexene; (cis+trans),84.16128,506.59,0.25,341.15,CC(I)=C
2-hexyl-1-decanol,242.44536,757.6,0.756,568.53,CC(C)C(C)(C)I
"2-hexyl-[1,2,3,4-tetrahydronaphthalene]",216.36656,784.07,0.594,583.15,CCCC(C)(C)I
2-hexyldecanoic acid,256.42888,776.0,1.083,586.63,CC(C)(C)I
2-hexylnaphthalene,212.3348,803.49,0.623,596.15,CC(I)C(C)(C)C
2-hexylphenol,178.27432,755.67,0.59,524.28,CC(C)C(I)=C
2-hexyne,82.1454,549.0,0.221,357.67,CC(C)=C(C)I
2-hydroxy-2-methylpropanoic acid,104.10572,664.0,0.983,485.15,CCC(C)C(C)I
2-hydroxy-3-butenenitrile,83.08984,639.0,0.844,461.0,CC(C)CC(C)I
2-hydroxyethyl acrylate,116.11672,662.0,0.864,484.0,C=CC(=O)OCCO
2-iodo-1-butene,182.00405,624.36,0.227,400.0,-
2-iodo-1-pentene,196.03093,614.94,0.271,403.5,-
2-iodo-1-propene,167.97717,597.58,0.184,373.15,CC(=C)I
"2-iodo-2,3-dimethylbutane",212.07369,597.98,0.668,426.59,CCC(C)I
2-iodo-2-methylpentane,212.07369,597.98,0.668,426.59,CCCC(C)(C)I
2-iodo-2-methylpropane,184.01993,587.9,0.179,373.16,CCCCCC(C)I
"2-iodo-3,3-dimethylbutane",212.07369,608.43,0.635,431.15,CCCCC(C)I
2-iodo-3-methyl-1-butene,196.03093,619.84,0.242,403.06,-
2-iodo-3-methyl-2-butene,196.03093,633.35,0.236,410.86,CC(C)I
2-iodo-3-methylpentane,212.07369,597.44,0.705,428.94,CC(C)Cc1ccc2ccccc2c1
2-iodo-4-methylpentane,212.07369,599.13,0.705,430.15,CC(C)Cc1ccccc1O
2-iodo-cis-2-butene,182.00405,608.34,0.217,388.1,CC(C)(C)N=C=O
2-iodo-cis-2-pentene,196.03093,628.8,0.261,410.98,CC(C)OCCO
2-iodo-trans-2-butene,182.00405,608.34,0.217,388.1,CCCC(CO)C(C)C
2-iodo-trans-2-pentene,196.03093,628.8,0.261,410.98,CCCC(=C)C(C)C
2-iodobutane,184.01993,563.37,0.648,393.15,CCCC(C)c1cccc(C(C)C)c1O
"2-iodobutane, (±)",184.01993,572.4,0.54,393.25,CC(C)c1ccccc1N
2-iodoheptane,226.10057,646.56,0.816,477.1,CC(C)c1ccc2ccccc2c1
2-iodohexane,212.07369,611.98,0.739,442.15,CC(C)c1ccccc1O
"2-iodooctane, (±)",240.12745,665.98,0.857,483.15,CC(C)c1ccccn1
2-iodopropane,169.99305,578.0,0.238,362.65,CC(C)c1sccc1
2-isobutylnaphthalene,184.28104,818.49,0.508,585.41,OCCS
2-isobutylphenol,150.22056,733.0,0.51,510.0,CC(C)CC1=CC=CC=C1O
2-isocyanato-2-methylpropane,99.1326,568.0,0.415,444.47,COC(C)CO
2-isopropoxyethanol,104.14908,582.0,0.783,418.15,COCCO
2-isopropyl-1-pentanol,130.23032,639.93,0.773,473.74,Cc1sc2ccccc2c1
2-isopropyl-1-pentene,112.21504,563.69,0.332,386.15,CSc1ccccc1C
2-isopropyl-6-(1-methylbutyl)phenol,206.32808,765.0,0.631,527.81,CCC(c1ccccc1)c2ccccc2
2-isopropylaniline,135.20896,705.58,0.413,494.15,CCC(C)(O)CO
2-isopropylnaphthalene,170.25416,770.24,0.463,541.35,CC(Cc1ccccc1)c2ccccc2
2-isopropylphenol,136.19368,714.75,0.464,487.65,CC(C)(N)CN
2-isopropylpyridine,121.18208,653.0,0.376,432.95,CC(C)(O)CO
2-isopropylthiophene,126.2224,640.96,0.342,426.15,Cc1c(N)cccc1N
2-mercaptoethanol,78.13504,629.0,0.672,430.9,CC=CC(C)=C
2-methacrylamide,85.10572,741.0,0.421,488.0,CC(CO)CO
2-methoxy-1-propanol,90.1222,566.0,0.719,402.65,CC(=C)CC=C
2-methoxyethanol,76.09532,564.0,0.733,397.5,COCCO
2-methyl benzothiophene,148.22852,780.0,0.351,519.0,-
2-methyl-(1-thiaethyl)-benzene,138.2334,718.95,0.371,482.88,CCC(C)CS
"2-methyl-1,1-diphenylethane",196.29204,787.73,0.491,562.15,-
"2-methyl-1,2-butanediol",104.14908,617.54,1.102,462.15,CCC(C)CO
"2-methyl-1,2-diphenylethane",196.29204,793.78,0.522,570.15,-
"2-methyl-1,2-propanediamine",88.15276,612.33,0.533,396.15,CCC(C)=C
"2-methyl-1,2-propanediol",90.1222,611.21,1.062,451.15,CC(=C)C#C
"2-methyl-1,3-benzenediamine",122.16988,804.0,0.58,557.0,CCCCCCCCC(C)C=O
"2-methyl-1,3-pentadiene",82.1454,526.51,0.25,348.55,CCCCCCCCC(C)=C
"2-methyl-1,3-propanediol",90.1222,697.0,0.714,487.15,CCCCCCCCCCC(C)=C
"2-methyl-1,4-pentadiene",82.1454,493.39,0.251,323.15,CCc1c(C)ccc2ccccc12
"2-methyl-1,cis-3-pentadiene",82.1454,535.2,0.241,349.15,CCCCCCCCCCCCCCCC(C)=C
"2-methyl-1,trans-3-pentadiene",82.1454,535.2,0.241,349.15,CCCCCC(C)CO
2-methyl-1-butanethiol,104.21628,591.0,0.306,392.15,CCC(C)CS
"2-methyl-1-butanethiol, (+)",104.21628,583.5,0.284,392.25,CCCCCC(C)=C
2-methyl-1-butanol,88.14968,575.4,0.574,401.85,CCCCCCCCCCCCCCC(C)=C
"2-methyl-1-butanol, (±)",88.14968,562.34,0.577,400.65,CCCCC(C)CO
2-methyl-1-butene,70.1344,465.0,0.23,304.31,CCC(=C)C
2-methyl-1-butene-3-yne,66.10264,492.0,0.137,305.4,CCCCC(C)=C
2-methyl-1-decanal,170.29508,672.0,0.697,507.63,CC(C)c1c(C)ccc2ccccc12
2-methyl-1-decene,154.29568,637.68,0.491,463.85,CCCCCCCCCCCCCCCCCC(C)=C
2-methyl-1-dodecene,182.34944,673.88,0.571,504.45,CCCCCCCC(C)CO
2-methyl-1-ethylnaphthalene,170.25416,770.78,0.493,546.15,CCCCCCCC(C)=C
2-methyl-1-heptadecene,252.48384,745.42,0.72,588.15,CCCCCCCCCCCCCCCCC(C)=C
2-methyl-1-heptanol,130.23032,602.93,0.806,448.75,CCCCCCC(C)CO
"2-methyl-1-heptanol, (±)",130.23032,600.92,0.733,448.75,CCCCCCC(C)=C
2-methyl-1-heptene,112.21504,567.0,0.355,392.37,CCCCCCCCCCCCCC(C)CO
2-methyl-1-hexadecene,238.45696,732.59,0.699,573.15,CCCCCCCCCCCCCC(C)=C
2-methyl-1-hexanol,116.20344,595.0,0.773,437.15,CCCC(C)CO
"2-methyl-1-hexanol, (±)",116.20344,587.2,0.709,437.15,CCCC(C)=C
2-methyl-1-hexene,98.18816,538.0,0.309,364.99,CCCC(C)COC(C)=O
2-methyl-1-isopropylnaphthalene,184.28104,817.54,0.507,585.41,-
2-methyl-1-nonadecene,280.5376,768.75,0.746,615.15,CCCOCC(C)C
2-methyl-1-nonanol,158.28408,648.77,0.883,495.15,CCCc1c(C)ccc2ccccc12
2-methyl-1-nonene,140.2688,616.0,0.453,441.55,CCCCCCCCCCCCC(C)=C
2-methyl-1-octadecene,266.51072,757.46,0.736,602.15,CCCCCCCCCCCC(C)=C
2-methyl-1-octanol,144.2572,627.23,0.846,473.0,CCCCCCCCCC(C)CO
2-methyl-1-octene,126.24192,593.0,0.406,417.8,CCCCCCCCCC(C)=C
2-methyl-1-pentadecanol,242.44536,757.6,0.756,568.53,CC(O)C(C)(C)O
2-methyl-1-pentadecene,224.43008,718.92,0.673,557.15,C[CH]=[C]=[C](C)C
2-methyl-1-pentanol,102.17656,604.4,0.51,421.15,CCC(O)C(C)(C)O
2-methyl-1-pentene,84.16128,505.0,0.261,335.25,CC(N)CC(C)(C)N
2-methyl-1-pentyl acetate,144.21384,618.0,0.54,436.15,CCC(C)(C)S
"2-methyl-1-propene, tetramer",224.43008,720.46,0.702,517.15,CC=C(C)C
2-methyl-1-propoxypropane,116.20344,558.21,0.307,378.15,CCC(C)(CC)CO
2-methyl-1-propylnaphthalene,184.28104,812.35,0.537,585.41,CCCC(C)(CC)CO