name,molweight,critical temperature (K),acentric factor,boiling point (K),SMILES
2-methyl-1-tetradecene,210.4032,704.33,0.642,540.15,CCCCCC(C)(C)O
2-methyl-1-tridecene,196.37632,690.08,0.669,523.15,CCCCC=C(C)C
2-methyl-1-undecanol,186.33784,712.9,0.635,512.53,CCCCC(C)(C)O
2-methyl-1-undecene,168.32256,656.53,0.532,484.75,CCCC=C(C)C
"2-methyl-2,3-butanediol",104.14908,600.61,1.066,447.15,CCCCCCCC(C)(C)O
"2-methyl-2,3-pentadiene",82.1454,534.09,0.229,345.15,CCCCCCC(C)(C)O
"2-methyl-2,3-pentanediol",118.17596,670.5,1.105,505.76,CCCC(C)(C)S
"2-methyl-2,4-pentanediamine",116.20652,663.0,0.65,429.24,CCCC(C)(C)O
2-methyl-2-butanethiol,104.21628,566.0,0.243,372.28,CCC=C(C)C=O
2-methyl-2-butene,70.1344,470.0,0.287,311.71,CCC=C(C)C
2-methyl-2-ethyl-1-butanol,116.20344,593.16,0.695,430.15,CCCOC(C)(C)C
2-methyl-2-ethyl-1-pentanol,130.23032,611.53,0.738,450.25,CCCCC(CC)(CC)C(C)C
2-methyl-2-heptanol,130.23032,583.83,0.738,429.85,CCCC(CC)(CC)C(C)C
2-methyl-2-heptene,112.21504,575.22,0.351,395.75,CCCC(CC)C(CC)C(C)C
2-methyl-2-hexanol,116.20344,573.58,0.695,415.95,CCC(CC)C(CC)C(C)C
2-methyl-2-hexene,98.18816,546.77,0.307,368.56,CCC(CC)CC(CC)C(C)C
2-methyl-2-nonanol,158.28408,643.93,0.819,487.0,CC(C=C)C(O)=O
2-methyl-2-octanol,144.2572,604.24,0.78,451.15,CCC(CC)C(C)CO
2-methyl-2-pentanethiol,118.24316,615.0,0.353,407.26,CCC(CC)C(C)=C
2-methyl-2-pentanol,102.17656,559.5,0.579,394.56,CCCC(CC)C(C)(C)O
2-methyl-2-pentenal,98.1448,605.0,0.349,409.65,CCC(CC)C(C)(C)O
2-methyl-2-pentene,84.16128,514.0,0.245,340.45,CCC(CC)=C(C)C
2-methyl-2-propoxypropane,116.20344,558.21,0.307,373.15,CCCCC(O)(CC)C(C)C
"2-methyl-3,3-diethylheptane",170.33844,652.14,0.461,476.15,CCCC(O)(CC)C(C)C
"2-methyl-3,3-diethylhexane",156.31156,638.91,0.419,459.15,CCCC(CC)(C(C)C)C(C)C
"2-methyl-3,4-diethylheptane",170.33844,637.53,0.491,468.15,CCC(O)(CC)C(C)C
"2-methyl-3,4-diethylhexane",156.31156,625.29,0.449,452.15,CCc1cc2ccccc2cc1C
"2-methyl-3,5-diethylheptane",170.33844,637.53,0.491,468.15,CCCCCCC(CC)C(C)C
2-methyl-3-butenoic acid,100.11732,676.0,0.395,450.0,CCCCCC(CC)C(C)C
2-methyl-3-ethyl-1-pentanol,130.23032,605.16,0.773,448.0,CCc1cccc(O)c1C
2-methyl-3-ethyl-1-pentene,112.21504,559.31,0.332,383.15,CCc1ccsc1C
2-methyl-3-ethyl-2-hexanol,144.2572,607.43,0.748,451.15,CCCCC(O)C(C)C
2-methyl-3-ethyl-2-pentanol,130.23032,588.68,0.706,430.95,CCC(CC)C(C)(C)O
2-methyl-3-ethyl-2-pentene,112.21504,570.68,0.326,390.15,CCCCC(=O)C(C)C
2-methyl-3-ethyl-3-heptanol,158.28408,619.35,0.788,466.15,CCCC=CC(C)C
2-methyl-3-ethyl-3-hexanol,144.2572,615.65,0.748,457.25,CCCC(O)C(C)C
2-methyl-3-ethyl-3-isopropylhexane,170.33844,648.03,0.461,473.15,-
2-methyl-3-ethyl-3-pentanol,130.23032,591.68,0.706,433.15,CCCC(=O)C(C)C
2-methyl-3-ethylnaphthalene,170.25416,776.44,0.488,550.16,CCC#CC(C)C
2-methyl-3-ethylnonane,170.33844,642.08,0.519,474.15,CCCC(O)(C(C)C)C(C)C
2-methyl-3-ethyloctane,156.31156,625.61,0.478,455.15,CCC(O)(C(C)C)C(C)C
2-methyl-3-ethylphenol,136.19368,726.44,0.495,500.15,CCCCC(C(C)C)C(C)C
2-methyl-3-ethylthiophene,126.2224,645.99,0.342,430.15,CCCCCC(C(C)C)C(C)C
2-methyl-3-heptanol,130.23032,595.37,0.773,440.75,CC(C)c1cccc(O)c1C
"2-methyl-3-heptanol, (±)",130.23032,600.92,0.733,440.65,CCCCCCC(O)C(C)C
2-methyl-3-heptanone,128.21444,624.0,0.528,431.15,CCCCCCC(=O)C(C)C
2-methyl-3-heptene,112.21504,564.74,0.328,385.15,CCCCCC=CC(C)C
2-methyl-3-hexanol,116.20344,573.21,0.731,418.15,CCCCCC(O)C(C)C
"2-methyl-3-hexanol, (±)",116.20344,587.2,0.709,416.15,CCCCCC(=O)C(C)C
2-methyl-3-hexanone,114.18756,583.8,0.451,406.15,CCC(O)C(C)C
2-methyl-3-hexyne,96.17228,561.44,0.25,368.35,CCC(OC(C)=O)C(C)C
2-methyl-3-isopropyl-3-hexanol,158.28408,620.04,0.759,465.15,CCCc1cccc(O)c1C
2-methyl-3-isopropyl-3-pentanol,144.2572,609.6,0.718,451.15,CCCSC(C)C
2-methyl-3-isopropylheptane,156.31156,624.32,0.449,451.45,CCSC(C)C
2-methyl-3-isopropyloctane,170.33844,638.89,0.491,469.15,CCCCCCCCCCC(O)C(C)C
2-methyl-3-isopropylphenol,150.22056,785.78,0.509,547.43,CCCCCCCCCCC(=O)C(C)C
2-methyl-3-nonanol,158.28408,633.8,0.852,481.55,CCCCCCCCC(O)C(C)C
2-methyl-3-nonanone,156.2682,656.59,0.612,473.0,CCCC(CC)(CC)CC(C)C
2-methyl-3-nonene,140.2688,616.98,0.457,434.15,CCC(CC)(CC)CC(C)C
2-methyl-3-octanol,144.2572,609.21,0.814,457.15,CCC(CC)C(CC)CC(C)C
2-methyl-3-octanone,142.24132,629.65,0.541,456.0,CCc1csc(C)c1
2-methyl-3-pentanol,102.17656,564.4,0.576,399.66,CCC(CC)C(O)C(C)C
2-methyl-3-pentyl acetate,144.21384,618.0,0.54,422.15,CCC(CC)C(C(C)C)C(C)C
2-methyl-3-propylphenol,150.22056,733.95,0.541,515.0,CCc1cc(C)cc2ccccc12
2-methyl-3-thiahexane,118.24316,598.65,0.351,405.2,CCCCCC(CC)CC(C)C
2-methyl-3-thiapentane,104.21628,585.0,0.223,380.53,CCCCC(CC)CC(C)C
2-methyl-3-tridecanol,214.3916,736.2,0.686,547.15,CCc1ccc(O)c(C)c1
2-methyl-3-tridecanone,212.37572,712.65,0.759,540.15,CCCC(O)CC(C)C
2-methyl-3-undecanol,186.33784,712.9,0.635,512.53,CCCC(=O)CC(C)C
"2-methyl-4,4-diethylheptane",170.33844,639.81,0.461,467.15,CCCC(CC(C)C)C(C)C
"2-methyl-4,4-diethylhexane",156.31156,629.17,0.419,452.15,CCCCC(CC(C)C)C(C)C
"2-methyl-4,5-diethylheptane",170.33844,634.8,0.491,466.15,CC(C)c1ccc(O)c(C)c1
2-methyl-4-ethyl thiophene,126.2224,655.0,0.342,436.15,CCCCCC(O)CC(C)C
2-methyl-4-ethyl-3-hexanol,144.2572,605.43,0.782,452.0,CCCCC(O)CC(C)C
2-methyl-4-ethyl-3-isopropylhexane,170.33844,630.72,0.491,463.15,CCCC=CCC(C)C
2-methyl-4-ethylnaphthalene,170.25416,772.19,0.493,547.15,CCCC(CCC)CC(C)C
2-methyl-4-ethylnonane,170.33844,638.02,0.519,471.15,CCCCC(CCC)CC(C)C
2-methyl-4-ethyloctane,156.31156,617.37,0.478,449.15,CCCc1ccc(O)c(C)c1
2-methyl-4-ethylphenol,136.19368,727.31,0.495,500.75,CCCC(CC(C)C)C(C)(C)C
2-methyl-4-heptanol,130.23032,593.34,0.773,439.25,CCCCCCCCCC(O)CC(C)C
2-methyl-4-heptanone,128.21444,624.0,0.528,427.15,CCC(CC)(CC)CCC(C)C
2-methyl-4-isopropylheptane,156.31156,615.61,0.449,445.15,CCc1sc(C)cc1
2-methyl-4-isopropyloctane,170.33844,630.72,0.491,463.15,CCc1cccc2cc(C)ccc12
2-methyl-4-isopropylphenol,150.22056,785.78,0.509,547.0,CCCCC(CC)CCC(C)C
2-methyl-4-nonanol,158.28408,634.39,0.852,482.0,CCCC(CC)CCC(C)C
2-methyl-4-octanol,144.2572,609.21,0.814,457.15,CCc1ccc(C)c(O)c1
2-methyl-4-octene,126.24192,593.62,0.411,412.15,CCC/C=C/CC(C)C
2-methyl-4-propylheptane,156.31156,614.62,0.478,447.15,CC(C)c1ccc(C)c(N)c1
2-methyl-4-propyloctane,170.33844,628.54,0.519,464.15,CCCC(CCC(C)C)C(C)C
2-methyl-4-propylphenol,150.22056,734.16,0.541,515.15,CC(C)c1ccc(C)c(O)c1
2-methyl-4-tert-butylheptane,170.33844,631.25,0.432,458.15,CCCCC(O)CCC(C)C
2-methyl-4-tridecanol,214.3916,736.2,0.686,552.35,CCCCC(=O)CCC(C)C
"2-methyl-5,5-diethylheptane",170.33844,645.29,0.461,471.15,CCCC(CCC)CCC(C)C
2-methyl-5-ethyl thiophene,126.2224,650.65,0.342,433.25,CCCc1ccc(C)c(O)c1
2-methyl-5-ethylnaphthalene,170.25416,766.55,0.493,543.15,CCCCCCC(O)CCC(C)C
2-methyl-5-ethylnonane,170.33844,635.31,0.519,469.15,CCc1ccc2cc(C)ccc2c1
2-methyl-5-ethyloctane,156.31156,620.12,0.478,451.15,CCCC(CC)CCCC(C)C
2-methyl-5-ethylphenol,136.19368,727.45,0.495,500.85,CCC(CC)CCCC(C)C
"2-methyl-5-isopropyl-1,3-cyclohexadiene, (±)",136.23704,647.0,0.341,448.65,CCc1cccc(C)c1O
2-methyl-5-isopropylaniline,149.23584,690.0,0.69,514.15,CC(C)c1cccc(C)c1O
2-methyl-5-isopropyloctane,170.33844,632.08,0.491,464.15,CCCc1cccc(C)c1O
2-methyl-5-isopropylphenol,150.22056,732.26,0.509,510.15,CCc1ccc2ccc(C)cc2c1
2-methyl-5-nonanol,158.28408,634.39,0.852,482.0,CCC(CC)CCCCC(C)C
2-methyl-5-nonanone,156.2682,656.59,0.612,476.65,CCc1cccc2ccc(C)cc12
2-methyl-5-propyloctane,170.33844,628.54,0.519,464.15,CC(C)c1cccc2ccc(C)cc12
2-methyl-5-propylphenol,150.22056,733.95,0.541,515.0,CN(C)c1ccccc1C
2-methyl-5-undecanol,186.33784,712.9,0.635,512.53,CC1CCc2ccccc2C1
2-methyl-6-ethylnaphthalene,170.25416,766.56,0.488,543.16,CCC\C=C/C(C)C
2-methyl-6-ethylnonane,170.33844,638.02,0.519,471.15,CC\C=C/C(C)C
2-methyl-6-ethyloctane,156.31156,625.61,0.478,455.15,-
2-methyl-6-ethylphenol,136.19368,707.55,0.495,487.15,CCC/C=C/C(C)C
2-methyl-6-isopropylphenol,150.22056,746.4,0.509,498.65,CC/C=C/C(C)C
2-methyl-6-propylphenol,150.22056,733.95,0.541,515.0,CCCC1=CC=CC(=C1O)C
2-methyl-7-ethylnaphthalene,170.25416,766.56,0.488,543.16,Cc1ccccc1C=O
2-methyl-7-ethylnonane,170.33844,643.43,0.519,475.15,Cc1ccccc1CO
2-methyl-8-ethylnaphthalene,170.25416,766.55,0.493,543.15,Cc1oc2ccccc2c1
2-methyl-8-isopropylnaphthalene,184.28104,775.28,0.507,555.15,Cc1ccccc1c2ccccc2
"2-methyl-N,N-dimethylaniline",135.20896,705.58,0.413,467.25,CCC(C)C=O
"2-methyl-[1,2,3,4-tetrahydronaphthalene]",146.23216,721.27,0.379,493.15,-
2-methyl-cis-3-heptene,112.21504,560.58,0.347,385.15,CCC(C)C#N
2-methyl-cis-3-hexene,98.18816,533.58,0.302,359.15,CCC(C)C(O)=O
2-methyl-cis-decahydronaphthalene,152.2798,713.14,0.331,489.15,CCC(C)COC(C)=O
2-methyl-trans-3-heptene,112.21504,560.58,0.347,385.15,CCCC(=O)OCC(C)CC
2-methyl-trans-3-hexene,98.18816,533.44,0.302,359.05,CCC(C)COC=O
2-methyl-trans-decahydronaphthalene,152.2798,701.48,0.331,481.15,CCC(C)COC(=O)CC
2-methylbenzaldehyde,120.15092,694.0,0.435,474.15,CCC(C)CN
2-methylbenzenemethanol,122.1668,691.0,0.743,497.15,CCC(C)C(O)=O
2-methylbenzofuran,132.16192,697.0,0.375,470.15,CC1=CC2=CC=CC=C2O1
2-methylbiphenyl,168.23828,790.07,0.425,528.65,CC1=CC=CC=C1C2=CC=CC=C2
2-methylbutanal,86.1338,543.73,0.388,365.15,CCCCCCCCC(C)C
"2-methylbutanal, (±)",86.1338,542.02,0.373,365.65,Cc1ccccc1Cc2ccccc2
2-methylbutanenitrile,83.1332,585.8,0.397,398.55,CCCCCCCCCCC(C)C
2-methylbutanoic acid,102.1332,643.0,0.589,450.15,CCCCCCCCCCC(C)C(O)=O
2-methylbutyl acetate,130.18696,589.0,0.459,413.15,CCC(=C)C(O)=O
2-methylbutyl butanoate,158.24072,620.0,0.728,452.15,Cc1occc1
2-methylbutyl formate,116.16008,577.0,0.378,393.76,CCCCCCCCCCCCCCCC(C)C
2-methylbutyl propanoate,144.21384,609.0,0.572,440.22,CCCCCC(C)C
2-methylbutylamine,87.16496,542.6,0.416,368.65,CCCCCC(C)C(O)=O
2-methylbutyric acid,102.1332,643.0,0.589,450.15,CCC(C)C(=O)O
2-methylcyclohexanol; (cis+trans),114.18756,635.0,0.685,438.9,CCCCCCCCCCCCCCC(C)C
2-methylcyclohexylamine; (cis+trans),113.20284,622.0,0.386,422.65,CCCCC(C)C=O
2-methyldecane,156.31156,631.76,0.507,462.34,CCCCC(C)C
2-methyldiphenylmethane,182.26516,784.15,0.478,553.65,CCCCC(C)C(O)=O
2-methyldodecane,184.36532,668.02,0.586,502.65,CCCCCCCCCCC(C)C
2-methyldodecanoic acid,214.34824,746.59,0.937,542.21,CC1=Cc2ccccc2C1
2-methylenebutanoic acid,100.11732,676.0,0.415,453.15,Cc1ccc2ccccc2c1
2-methylfuran,82.10204,527.0,0.283,337.85,CCCCCCCCCCCCCCCCCC(C)C
2-methylheptadecane,254.49972,739.33,0.727,585.15,CCCCCCCC(C)C
2-methylheptane,114.23092,559.64,0.377,390.8,CCCCCCCCCCCCCCCCC(C)C
2-methylheptanoic acid,144.21384,692.0,0.779,436.35,CCCCCCC(C)C=O
"2-methylheptyl acetate, (±)",172.2676,650.6,0.574,468.15,CCCCCCC(C)C
2-methylhexadecane,240.47284,726.23,0.708,570.15,CCCCCCC(C)C(O)=O
2-methylhexanal,114.18756,593.0,0.464,416.0,CCCCCCCCCCCCCC(C)C
2-methylhexane,100.20404,530.4,0.328,363.2,CCCC(C)C=O
2-methylhexanoic acid,130.18696,666.0,0.696,483.0,CCCC(C)C
"2-methylhexanoic acid, (±)",130.18696,680.0,0.717,488.65,CCCC(C)C#N
2-methylindene,130.1894,711.0,0.351,479.45,CC1=CC2=CC=CC=C2C1
2-methylnaphthalene,142.2004,761.0,0.378,514.26,Cc1ccccn1
2-methylnonadecane,282.55348,763.21,0.748,612.15,Cc1[nH]ccc1
2-methylnonane,142.28468,610.0,0.472,440.15,Cc1ccc2ccccc2n1
2-methyloctadecane,268.5266,751.64,0.741,599.15,CCCCCCCCCCCCC(C)C
2-methyloctanal,142.24132,640.0,0.592,456.62,CC1CCCO1
2-methyloctane,128.2578,582.8,0.458,416.43,CC1CCCCS1
2-methyloctanoic acid,158.24072,694.0,0.791,518.15,CC1CCCS1
2-methylpentadecane,226.44596,713.05,0.683,554.75,CC1CS1
2-methylpentanal,100.16068,569.05,0.433,390.15,Cc1sccc1
2-methylpentane,86.17716,497.7,0.279,333.41,CCCCCCCCCCCCCCCCCCCCCC(C)C
2-methylpentanenitrile,97.16008,605.44,0.442,420.15,CCCCCCCCCCCC(C)C
"2-methylpentanoic acid, (±)",116.16008,661.0,0.652,468.75,CCCCCCCCCC(C)C=O
2-methylpyridine,93.12832,621.0,0.299,402.55,CCCCCCCCCC(C)C
2-methylpyrrole,81.11732,610.0,0.213,420.75,CCCC(C)C(O)=O
2-methylquinoline,143.1882,769.0,0.359,520.91,CC(C)C(C)(C)[N+]([O-])=O
2-methyltetradecane,212.41908,698.98,0.654,538.35,CCCC(C)(C)[N+]([O-])=O
2-methyltetrahydrofuran,86.1338,537.0,0.3,353.37,CC(C)(C)[N+]([O-])=O
2-methylthiacyclohexane,116.22728,660.59,0.244,426.19,CC([N+]([O-])=O)C(C)(C)C
2-methylthiacyclopentane,102.2004,637.0,0.229,405.63,CCC(C)C(C)[N+]([O-])=O
2-methylthiacyclopropane,74.14664,561.1,0.201,347.55,CC(C)CC(C)[N+]([O-])=O
2-methylthiophene,98.16864,609.0,0.239,385.71,[O-][N+](=O)c1ccccc1Nc2ccccc2
2-methyltricosane,338.661,814.95,0.71,664.45,CCC(C)[N+]([O-])=O
2-methyltridecane,198.3922,684.08,0.622,521.05,CCCCCCCCCCCC(C)C
2-methylundecanal,184.32196,685.0,0.754,519.25,CCCCC(C)[N+]([O-])=O
2-methylundecane,170.33844,650.71,0.548,484.0,CCCCCCCCCC(C)C
2-methylvaleric acid,116.16008,661.0,0.652,435.4,CC(C)[N+]([O-])=O
"2-nitro-2,3-dimethylbutane",131.17476,642.93,0.427,442.15,CCCCCCCCCCCCCCCCCC(C)S
2-nitro-2-methylpentane,131.17476,643.67,0.458,446.0,CCCCCCCCCCCCCCCCCC(C)O
2-nitro-2-methylpropane,103.121,592.0,0.383,400.31,CCCCCCCCCCCCCCCCCC(C)=O
"2-nitro-3,3-dimethylbutane",131.17476,634.21,0.427,436.15,CCCCCCCCCCCCCCCCC#CC
2-nitro-3-methylpentane,131.17476,634.96,0.491,443.15,CCCCCCCC(C)S
2-nitro-4-methylpentane,131.17476,634.74,0.491,443.0,CCCCCCCC(C)O
2-nitro-N-phenylaniline,214.22368,835.0,0.767,616.0,C1=CC=C(C=C1)NC2=CC=CC=C2[N+](=O)[O-]
2-nitrobutane,103.121,615.0,0.357,412.85,CCCCCCCC(C)=O
"2-nitrobutane, (±)",103.121,610.0,0.402,413.15,CCCCCCCCCC1CCc2ccccc2C1
2-nitrohexane,131.17476,639.0,0.523,449.15,CCCCCCCCCc1ccc2ccccc2c1
"2-nitrooctane, (±)",159.22852,690.75,0.643,480.78,CCCCCCC#CC
2-nitropropane,89.09412,594.0,0.384,393.4,C1CC2CC1C=C2
2-nonadecanethiol,300.5926,795.0,0.826,639.15,CCCCCCCCCCCCCCCCC(C)S
2-nonadecanol,284.526,782.8,0.872,627.15,CCCCCCCCCCCCCCCCC(C)O
2-nonadecanone,282.51012,766.51,0.843,616.15,CCCCCCCCCCCCCCCCC(C)=O
2-nonadecyne,264.49484,775.87,0.728,612.15,CCCCCCCCCCCCCCCC#CC
2-nonanethiol,160.3238,672.0,0.473,481.35,CCCCCCCC(C)S
2-nonanol,144.2572,649.6,0.595,471.65,CCCCCCC(C)S
"2-nonanol, (±)",144.2572,614.43,0.768,466.65,-
2-nonanone,142.24132,652.5,0.498,467.15,CCCCCCC(C)O
"2-nonyl-[ 1,2,3,4-tetrahydronaphthalene]",258.4472,809.34,0.702,624.15,-
2-nonylnaphthalene,254.41544,834.22,0.732,642.15,CCCCCCC(C)=O
2-nonyne,124.22604,630.31,0.368,435.05,CCCCCCC(C)I
2-norbornene,94.1564,583.0,0.159,368.65,CCCCCCCCCCC(CO)CCCCCCCC
2-octadecanethiol,286.56572,787.0,0.811,627.15,CCCCCCCCC1CCc2ccccc2C1
2-octadecanol,270.49912,773.9,0.832,614.15,CCCCCCCCC(CCCCCCCC)C(O)=O
2-octadecanone,268.48324,758.47,0.838,606.15,CCCCCCCCc1ccc2ccccc2c1
2-octadecyne,250.46796,764.58,0.707,598.15,CCCCCC#CC
"2-octanamine, (±)",129.2456,601.45,0.5,437.15,C1COC(C1)C2CCCO2
2-octanethiol,146.29692,653.0,0.423,459.55,CCCCCCCCCCCCCC(C)S
"2-octanethiol, (±)",146.29692,648.0,0.401,459.55,CCCCCCCCCCCCCC(C)O
2-octanol,130.23032,629.6,0.584,452.95,CCCCCCCCCCCCCC(C)=O
"2-octanol, (±)",130.23032,600.92,0.733,453.15,CCCCCCCCCCCCC#CC
2-octanone,128.21444,632.7,0.455,446.15,CCCC(C)S
2-octyl iodide,240.12745,665.98,0.857,490.71,CCCCCCC(C)I
2-octyl-1-dodecanol,298.55288,791.6,0.918,619.43,CCCCCC1CCc2ccccc2C1
"2-octyl-[1,2,3,4-tetrahydronaphthalene]",244.42032,802.56,0.669,612.15,CCCCCc1ccc2ccccc2c1
2-octyldecanoic acid,284.48264,799.0,1.084,665.1,CCC#CC
2-octylnaphthalene,240.38856,825.21,0.699,628.15,CC(CO)c1ccccc1
2-octyne,110.19916,607.45,0.324,410.88,CCC(C)(C)c1ccccc1
2-oxolan-2-yloxolane,142.19796,738.0,0.372,497.0,CC(C)(O)c1ccccc1
2-pentadecanethiol,244.48508,757.0,0.727,586.15,CC(C)C(C)c1ccccc1
2-pentadecanol,228.41848,743.2,0.728,572.15,SCCc1ccccc1
2-pentadecanone,226.4026,723.72,0.787,565.15,OCCc1ccccc1
2-pentadecyne,208.38732,729.7,0.616,553.15,CCCC(C)c1ccccc1
2-pentanethiol,104.21628,580.0,0.302,385.55,CC=Cc1ccccc1
2-pentene; (cis+trans),70.1344,467.08,0.241,306.7,CCCCCC(CO)CCC
"2-pentyl-[1,2,3,4-tetrahydronaphthalene]",202.33968,774.92,0.554,568.15,CCCCC(CO)CCC
2-pentylnaphthalene,198.30792,797.48,0.575,583.16,CCCC(CO)CCC
2-pentyne,68.11852,519.0,0.175,329.27,CCCC(=C)CCC
2-phenyl-1-propanol,136.19368,685.0,0.764,497.65,CCCC1=Cc2ccccc2C1
2-phenyl-2-methylbutane,148.24804,676.93,0.351,465.53,CCCC1CCc2ccccc2C1
2-phenyl-2-propanol,136.19368,660.0,0.698,475.15,CCCc1ccccc1N
2-phenyl-3-methylbutane,148.24804,665.6,0.383,461.15,CCCc1ccc2ccccc2c1
2-phenylethanethiol,138.2334,725.28,0.374,490.65,CCCC(CCC)C=O
2-phenylethanol,122.1668,684.0,0.743,492.05,CCCC(CCC)C(O)=O
2-phenylpentane,148.24804,663.62,0.413,463.15,CCCc1ccccc1O
2-propenylbenzene,118.1784,640.92,0.332,428.95,CCCc1ccccn1
2-propyl-1-heptanol,158.28408,643.4,0.883,491.05,CCCc1sccc1
2-propyl-1-hexanol,144.2572,612.65,0.846,462.0,O=C1CCCN1
2-propyl-1-pentanol,130.23032,607.5,0.806,452.15,CCCC(C)c1ccccc1O
2-propyl-1-pentene,112.21504,566.22,0.361,390.85,CCC(C)c1cccc(C(C)C)c1O
2-propyl-1H-indene,158.24316,726.0,0.441,510.46,CCC(C)c1ccccc1N
"2-propyl-[1,2,3,4-tetrahydronaphthalene]",174.28592,752.45,0.468,534.15,CCC(C)c1ccc2ccccc2c1
2-propylaniline,135.20896,705.58,0.413,499.15,CCC(C)c1ccccc1O
2-propylnaphthalene,170.25416,772.44,0.488,546.66,Cc1cc(O)c(cc1C)C(C)(C)C
2-propylpentanal,128.21444,614.0,0.534,433.15,Cc1cc(C)c(O)c(c1)C(C)(C)C
2-propylpentanoic acid,144.21384,692.0,0.779,494.15,CCc1ccc(O)c(c1)C(C)(C)C
2-propylphenol,136.19368,716.37,0.496,492.55,Cc1ccc(O)c(c1)C(C)(C)C
2-propylpyridine,121.18208,653.0,0.376,440.15,Cc1ccc(c(O)c1)C(C)(C)C
2-propylthiophene,126.2224,649.23,0.342,431.65,Cc1cccc(c1O)C(C)(C)C
2-pyrrolidone,85.10572,802.0,0.432,524.32,CC(C)(C)c1ccccc1N
2-sec-amylphenol,164.24744,751.0,0.569,407.65,CC(C)(C)c1ccc2ccccc2c1
2-sec-butyl-6-isopropylphenol,192.3012,762.67,0.621,484.92,CC(C)(C)c1ccccc1O
2-sec-butylaniline,149.23584,690.0,0.69,502.03,CCCCCCCCCCCCC(C)S
2-sec-butylnaphthalene,184.28104,818.49,0.508,585.41,CCCCCCCCCCCCC(C)O
2-sec-butylphenol,150.22056,720.28,0.51,501.15,CCCCCCCCCCCCC(C)=O
"2-tert-butyl-4,5-dimethylphenol",178.27432,755.67,0.59,531.65,CCCCCCCCCCCC=CC
"2-tert-butyl-4,6-dimethylphenol",178.27432,755.67,0.59,522.15,CCCCCCCCCCCCCCCCCSC
2-tert-butyl-4-ethylphenol,178.27432,755.67,0.59,523.15,CCCCCCCCCCCC(C)S
2-tert-butyl-4-methylphenol,164.24744,751.0,0.569,510.15,CCCCCCCCCCCC(C)O
2-tert-butyl-5-methylphenol,164.24744,751.0,0.569,486.71,CCCCCCCCCCCC(C)=O
2-tert-butyl-6-methylphenol,164.24744,751.0,0.569,503.15,CCCCCCCCCCC#CC
2-tert-butylaniline,149.23584,690.0,0.69,507.15,CCCCCCCCCC(C)S
2-tert-butylnaphthalene,184.28104,783.88,0.445,553.25,CCCCCCCCCC(C)O
2-tert-butylphenol,150.22056,725.38,0.444,497.23,CC(C)(C)C1=CC=CC=C1O
2-tetradecanethiol,230.4582,746.0,0.683,571.15,CCCCCCCCCC(C)=O
2-tetradecanol,214.3916,731.4,0.694,557.15,CCCCCCCCCCCc1ccc2ccccc2c1
2-tetradecanone,212.37572,712.65,0.759,551.15,CCCCCCCCC#CC
2-tetradecene,196.37632,716.27,0.55,536.15,CCCCCCCCCCCC=CC
2-thianonadecane,286.56572,790.0,0.999,646.15,-
2-tridecanethiol,216.43132,734.0,0.635,555.15,CCCCCCCCCCCC(C)S
2-tridecanol,200.36472,718.6,0.657,541.15,CCCCCCCCCCCC(C)O
2-tridecanone,198.34884,707.26,0.727,535.73,CCCCCCCCCCCC(=O)C
2-tridecyne,180.33356,701.82,0.539,518.15,Cc1cccc(c1)c2cccc(C)c2
2-undecanethiol,188.37756,706.0,0.563,520.45,FC(F)(F)C=C
2-undecanol,172.31096,689.7,0.604,508.15,CCC(C)C(C)(C)C(C)(C)CC
"2-undecanol, (±)",172.31096,696.85,0.596,501.15,CC(O)C(C)(C)C(C)(C)C
2-undecanone,170.29508,678.01,0.653,500.98,CCCC(C)(C)C(C)(C)CC
2-undecylnaphthalene,282.4692,852.71,0.787,669.15,CCC(C)(C)C(C)(C)CC
2-undecyne,152.2798,669.5,0.456,479.15,CCCCC(C)(C)C(C)(C)CC
"3',3""-dimethyldiphenylmethane",196.29204,788.71,0.521,567.15,CCC(C)(C)C(C)C(C)(C)CC
"3',4""-dimethyldiphenylmethane",196.29204,792.88,0.521,570.15,CCC(C)C(C)C(C)(C)CC
"3',4'-dimethyldiphenylmethane",196.29204,794.27,0.521,571.15,CCCC(C)C(C)C(C)(C)CC
"3',5'-dimethyldiphenylmethane",196.29204,788.71,0.521,567.15,CCC(C)CC(C)C(C)(C)CC
"3(4)-methylstyrene, isomers",118.1784,658.75,0.334,443.15,CCC(CC)C(CC)(CC)CC
"3,3'-dimethylbiphenyl",182.26516,796.1,0.512,559.15,CC(C)C(C)(C)CCO
"3,3,3-trifluoropropene",96.0520296,378.59,0.265,248.15,CC(C)C(C)(C)C=C
"3,3,4,4,5-pentamethylheptane",170.33844,668.43,0.375,479.15,CC(C)C(C)(C)C(C)O
"3,3,4,4-tetramethyl-2-pentanol",144.2572,620.44,0.651,453.15,CCCC(C)(CC)C(C)(C)CC