name,molweight,critical temperature (K),acentric factor,boiling point (K),SMILES
7-pentadecene,210.4032,706.17,0.663,549.62,OCCCCCCCC=C
7-tetradecyne,194.36044,697.74,0.622,535.6,CCCCCCCC(=O)CCCCCCC
7-tridecanone,198.34884,707.26,0.727,534.15,CCCCCCCC=CCCCCCC
8-ethylquinoline,157.21508,761.28,0.498,529.15,CCCCCCCCCC(CCCCCCCC)c1ccc(C)cc1
8-hydroxyquinoline,145.16072,788.0,0.522,540.0,CCCCCCCCCCCC(CCCCCCCC)C1CCCCC1
8-methyl-1-nonanol,158.28408,644.0,0.913,493.0,CCCCCCCCC(O)CCCCCCCC
8-methyl-1-nonene,140.2688,619.0,0.452,443.65,CCCCCCCCC(=O)CCCCCCCC
8-methyl-2-nonanol,158.28408,640.97,0.852,487.0,CCCCCCCCC(CCCCCC)CCCCCCCC
8-methyl-4-nonyne,138.25292,642.22,0.417,443.65,CCCCCCCCC(C)CCCCCCCC
8-methylisoquinoline,143.1882,778.59,0.428,531.15,CCCCCCCCCC(C)CCCCCCCC(O)=O
8-methylnonanoic acid,172.2676,713.0,0.877,473.73,CCCCCCCCC=CCCCCCCCC
8-methylquinoline,143.1882,764.56,0.452,521.07,CCCCCCCCC#CCCCCCCCC
8-nonen-1-ol,142.24132,629.65,0.541,456.62,CC(=C)C1CCC(=CC1)C
8-pentadecanone,226.4026,723.72,0.787,564.15,CC(O)C(C)O
8-pentadecene,210.4032,706.17,0.663,549.62,CC(Br)C(C)Br
9-(4-tolyl)octadecane,344.62436,841.84,0.778,683.15,C[C@@H](Cl)[C@@H](C)Cl
9-cyclohexyleicosane,364.69888,853.38,0.708,689.65,CC(C(C)c1ccccc1)c2ccccc2
9-heptadecanol,256.47224,767.2,0.798,599.15,CCCCC(N)CO
9-heptadecanone,254.45636,745.97,0.827,524.65,CCCC(N)CO
9-hexylheptadecane,324.63412,803.12,0.734,653.35,S.CC(=C)[C@H]1CCC(=CC1)C
9-methylheptadecane,254.49972,737.16,0.724,582.27,N[C@@H](Cc1ccccc1)C(O)=O
9-methyloctadecanoic acid,298.50952,810.0,1.07,690.66,CNc1ccccc1C
9-octadecene,252.48384,746.71,0.755,594.74,CNc1cccc(C)c1
9-octadecyne,250.46796,754.15,0.709,593.12,CNc1ccc(C)cc1
D-limonene,136.23704,660.0,0.312,449.65,CC(C)(C)NCCNC(C)(C)C
"DL-2,3-butanediol",90.1222,611.0,1.106,453.85,CCNCCNCC
"DL-2,3-dibromobutane",215.91552,656.19,0.403,433.65,CNCCNC
"DL-2,3-dichlorobutane",127.01292,598.18,0.278,392.65,CNCCCNC
"DL-2,3-diphenylbutane",210.31892,778.3,0.452,577.2,N(c1ccccc1)c2ccc(Nc3ccccc3)cc2
DL-2-amino-1-hexanol,117.19124,681.0,0.97,464.15,CN(C)c1c(C)cccc1C
DL-2-amino-1-pentanol,103.16436,626.41,0.841,467.65,CN(C)CCN(C)C
L-limonene,136.23704,660.0,0.313,451.15,CN(C)CN(C)C
L-phenylalanine,165.19188,854.0,0.852,628.0,CNCCCN(C)C
"N,2-dimethylaniline",121.18208,695.58,0.433,480.65,CNCCN(C)C
"N,3-dimethylaniline",121.18208,695.58,0.433,479.65,C=CCN(CC=C)CC=C
"N,4-dimethylaniline",121.18208,695.58,0.433,483.15,CCN(CC)CCN
"N,N'-di-tert-butylethylenediamine",172.31404,625.0,0.628,462.15,CC(C)(C)NCCNC(C)(C)C
"N,N'-diethyl-1,2-ethanediamine",116.20652,663.0,0.65,419.15,CC(C)CN(C(C)C)C(C)C
"N,N'-dimethyl-1,2-ethanediamine",88.15276,612.33,0.533,393.15,CC(C)N(C)C
"N,N'-dimethyl-1,3-propanediamine",102.17964,637.67,0.591,418.15,CN(C)C(C)=O
"N,N'-diphenyl-p-phenylenediamine",260.33852,1017.0,0.859,772.0,CN(C)c1ccccc1
"N,N,2,6-tetramethylaniline",149.23584,690.0,0.69,469.15,CN(C)CCN
"N,N,N',N'-tetramethyl-1,2-ethanediamine",116.20652,569.0,0.392,394.15,CN(C)C=O
"N,N,N',N'-tetramethylmethanediamine",102.17964,637.67,0.591,356.15,CCCCCCC(C)NC(C)CCCCCC
"N,N,N'-trimethyl-1,3-propanediamine",116.20652,663.0,0.65,414.15,CC(=O)Nc1ccc(O)cc1
"N,N,N'-trimethylethylenediamine",102.17964,637.67,0.591,390.15,C=CCNCC=C
"N,N-diallyl-2-propen-1-amine",137.22484,592.0,0.499,423.65,NCCNCCO
"N,N-diethyl-1,2-ethanediamine",116.20652,663.0,0.65,417.15,NCCN1CCNCC1
"N,N-dietyhlaniline",149.23584,702.0,0.426,489.42,CCCCNc1ccccc1
"N,N-diisopropylisobutylamine",157.29936,644.56,0.585,445.0,CCCCNCCN
"N,N-dimethyl-2-propanamine",87.16496,525.16,0.379,339.18,CCNCCN
"N,N-dimethylacetamide",87.1216,658.0,0.364,439.25,CC(=O)N(C)C
"N,N-dimethylaniline",121.18208,687.15,0.402,466.69,CCNCC(C)=C
"N,N-dimethylethylenediamine",88.15276,612.33,0.533,378.65,CCNc1ccccc1C
"N,N-dimethylformamide",73.09472,649.6,0.318,426.15,CCNc1cccc(C)c1
N-(1-methylheptyl)-2-octanamine,241.46064,732.83,0.793,556.15,CCNc1ccc(C)cc1
N-(4-hydroxyphenyl)acetamide,151.165,736.0,0.8,530.0,CCN(O)CC
N-allyl-2-propen-1-amine,97.16008,556.0,0.448,384.15,CCN(C(C)C)C(C)C
N-aminoethyl ethanolamine,104.15216,698.0,1.05,517.0,CCN(C)c1ccccc1
N-aminoethyl piperazine,129.20532,708.0,0.557,493.55,CCCN(CC)CCC
N-butylaniline,149.23584,690.0,0.69,516.65,CCNc1ccccc1
N-butylethylenediamine,116.20652,663.0,0.65,431.15,CCNC=O
"N-ethyl-1,2-ethanediamine",88.15276,612.33,0.533,402.15,CC(C)CNc1ccccc1
"N-ethyl-2-butanamine, (±)",101.19184,559.92,0.404,371.15,CC(C)NCCCN
N-ethyl-2-methylallylamine,99.17596,556.0,0.355,377.9,CC(C)N(C)C(C)(C)C
N-ethyl-2-methylaniline,135.20896,705.58,0.413,489.15,CC(C)Nc1ccccc1
N-ethyl-3-methylaniline,135.20896,705.58,0.413,494.15,CC(C)NCCN
N-ethyl-4-methylaniline,135.20896,705.58,0.413,490.15,CCCCCC(C)NC
N-ethyl-N-hydroxyethanamine,89.13748,567.0,0.715,403.7,CN1CCCC1=O
N-ethyl-N-isopropyl-2-propanamine,129.2456,601.45,0.5,399.65,CNC(C)=O
N-ethyl-N-methylaniline,135.20896,705.58,0.413,477.15,CNc1ccccc1
N-ethyl-N-propyl-1-propanamine,129.2456,601.45,0.5,411.15,CNC1CCCCC1
N-ethylaniline,121.18208,698.55,0.415,476.15,CCCCN(C)CCCC
N-ethylformamide,73.09472,647.0,0.376,471.15,CCCCCCN(C)CCCCCC
N-isobutylaniline,149.23584,690.0,0.69,505.15,CNC=O
"N-isopropyl-1,3-propanediamine",116.20652,663.0,0.65,435.15,Cn1cccc1
N-isopropyl-N-methyl-tert-butylamine,129.2456,601.45,0.5,400.15,CN1CCCC1=S
N-isopropylaniline,135.20896,705.58,0.413,476.15,[O-][N+](=O)Nc1ccccc1
N-isopropylethylenediamine,102.17964,637.67,0.591,409.15,CCCNCCCN
N-methyl-2-heptanamine,129.2456,601.45,0.5,428.15,CCCNc1ccccc1
N-methyl-2-pyrrolidone,99.1326,721.6,0.373,477.42,CCCCNCCC
N-methylacetamide,73.09472,718.0,0.435,478.15,CCCNCCN
N-methylaniline,107.1552,701.55,0.475,469.02,CCC(C)Nc1ccccc1
N-methylcyclohexylamine,113.20284,622.0,0.386,422.0,CC(C)(C)Nc1ccccc1
N-methyldibutylamine,143.27248,617.4,0.567,432.75,CC(C)NC(C)(C)C
N-methyldihexylamine,199.38,694.76,0.685,520.48,CSCc1ccccc1
N-methylformamide,59.06784,721.0,0.41,472.66,O=C1CCCCC1C2CCCCC2
N-methylpyrrole,81.11732,610.0,0.213,385.89,CC(C)C(C(C)C)c1ccccc1
N-methylthiopyrrolidone,115.1992,869.0,0.238,557.0,CC(CC(=O)OC)C(=O)OC
N-nitroaniline,138.12592,816.67,0.754,557.33,C1=CC=C(C=C1)N[N+](=O)[O-]
"N-propyl-1,3-propanediamine",116.20652,663.0,0.65,442.15,CCCNCCCN
N-propylaniline,135.20896,705.58,0.413,495.15,C1Cc2cccc3cccc1c23
N-propylbutylamine,115.21872,565.35,0.409,406.65,c1cc2cccc3C=Cc(c1)c23
N-propylethylenediamine,102.17964,637.67,0.591,421.65,CCOC(C)OCC
N-sec-butylaniline,149.23584,690.0,0.69,498.15,CC=O
N-tert-butylaniline,149.23584,690.0,0.69,488.15,CC=NO
N-tert-butylisopropylamine,115.21872,565.35,0.409,371.15,CC(N)=O
[(methylthio)methyl]benzene,138.2334,725.28,0.374,483.15,CC(=O)Nc1ccccc1
"[1,1'-bicyclohexyl]-2-one",180.2902,787.0,0.315,537.15,CC(O)=O
[2-methyl-1-isopropylpropyl]benzene,176.3018,714.0,0.529,493.85,CC(=O)OC(C)=O
"a,2-dimethylstyrene",132.20528,675.92,0.378,450.45,CC(=O)CC(=O)Nc1ccccc1
a-a-p-trichlorotoluene,195.4748,737.0,0.26,483.65,CC(C)=O
a-terpineol,154.25232,675.0,0.699,492.95,CC(C)(O)C#N
acenaphthene,154.2114,803.15,0.381,550.54,CC#N
acenaphthylene,152.19552,792.0,0.399,543.15,CC(=O)c1ccccc1
acetal,118.17596,539.7,0.487,376.65,CC(Cl)=O
acetaldehyde,44.05316,466.0,0.291,294.0,CC(=O)CC(C)=O
acetaldoxime,59.06784,568.0,0.638,388.35,C#C
acetamide,59.06784,761.0,0.421,494.3,c1ccc2nc3ccccc3cc2c1
acetanilide,135.1656,825.0,0.565,576.95,C=CC=O
acetic acid,60.05256,591.95,0.467,391.05,NC(=O)C=C
acetic anhydride,102.08984,606.0,0.454,412.7,OC(=O)C=C
acetoacetanilide,177.20288,879.0,0.795,648.0,C=CC#N
acetone,58.08004,508.2,0.306,329.44,OC(=O)CCCCC(O)=O
acetone cyanohydrin,85.10572,620.0,0.767,444.0,N#CCCCCC#N
acetonitrile,41.05256,545.5,0.338,354.75,[CH2]=[C]=[CH2]
acetophenone,120.15092,709.6,0.383,475.26,CC(=O)OCC=C
acetyl chloride,78.49792,508.0,0.334,323.9,OCC=C
acetylacetone,100.11732,646.65,0.211,413.55,CCCC(=O)OCC=C
acetylene,26.03788,308.3,0.191,189.35,CCOCC=C
acridine,179.2212,905.0,0.438,619.15,C=CCOC=O
acrolein,56.06416,506.0,0.32,325.84,C=CCOCC1CO1
acrylamide,71.07884,776.0,0.486,514.0,CC(=C)C(=O)OCC=C
acrylic acid,72.06356,615.0,0.518,414.15,CCC(=O)OCC=C
acrylonitrile,53.06356,535.0,0.35,350.5,CC(C)(C)OOCC=C
adipic acid,146.143,809.0,1.051,611.0,NCC=C
adiponitrile,108.143,781.0,0.659,568.15,ClCC1CO1
allene,40.06476,394.0,0.104,238.65,CCC(O)c1ccccc1
allyl acetate,100.11732,559.0,0.388,377.15,CC(C=O)c1ccccc1
allyl alcohol,58.08004,545.1,0.57,370.23,C=CCO
allyl butanoate,128.17108,592.33,0.432,415.15,CC(=C)c1ccccc1
allyl ethyl ether,86.1338,505.58,0.323,340.75,CC(C)C1CC=C(C)C=C1
allyl formate,86.09044,530.0,0.343,356.75,CC1=CCC2CC1C2(C)C
allyl glycidyl ether,114.1442,629.0,0.409,427.15,C=CCOCC1CO1
allyl methacrylate,126.1552,600.0,0.388,412.65,CC(C)C1=CC=C(C)CC1
allyl propanoate,114.1442,569.0,0.434,396.15,[BH4-].[BH4-].[BH4-].[Al+3]
allyl-tert-butylperoxide,130.18696,563.0,0.402,389.94,[Al+3].[Br-].[Br-].[Br-]
allylamine,57.09532,505.0,0.327,326.45,[Al+3].[Cl-].[Cl-].[Cl-]
alpha-epichlorohydrin,92.5248,615.0,0.252,391.65,[Al+3].[I-].[I-].[I-]
alpha-ethylbenzenemethanol,136.19368,677.0,0.746,492.15,NCC#N
alpha-methylbenzeneacetaldehyde,134.1778,682.0,0.459,472.0,N
"alpha-methylbenzenemethanethiol, (S)",138.2334,725.28,0.374,472.15,[NH4+].[C-]#N
alpha-methylstyrene,118.1784,654.0,0.323,438.65,[NH4+].[S-]C#N
alpha-phellandrene,136.23704,649.0,0.381,448.15,COc1ccc(C=CC)cc1
alpha-pinene,136.23704,644.0,0.221,429.29,Nc1ccccc1
"alpha-pinene, (-)",136.23704,647.0,0.341,428.15,CNc1ccc(cc1)C(C)C
alpha-terpinene,136.23704,649.0,0.372,448.15,COc1ccccc1
aluminum borohydride,71.509819,513.77,0.436,317.65,c1ccc2cc3ccccc3cc2c1
aluminum bromide,266.693539,763.0,0.399,528.15,O=C1c2ccccc2C(=O)c3ccccc13
aluminum chloride,133.339639,629.0,0.3555,453.15,Cl[Sb](Cl)(Cl)(Cl)Cl
aluminum iodide,407.694949,983.0,0.349,655.15,Cl[Sb](Cl)Cl
aminoacetonitrile,56.06724,638.0,0.466,425.0,Cl[As](Cl)Cl
ammonia,17.03056,405.65,0.2526,239.72,F[As](F)F
ammonium cyanide,44.05624,491.32,0.425,304.85,O=[As]O[As]=O
ammonium thiocyanate,76.12224,854.0,0.359,536.0,[AsH3]
anethole,148.20468,723.0,0.485,508.45,[At]
aniline,93.12832,699.0,0.378,457.15,c1ccc2cccc2cc1
"aniline, p-isopropyl-N-methyl-,",149.23584,690.0,0.69,502.03,c1ccc2cc3c(ccc4ccccc34)cc2c1
anisole,108.13992,645.6,0.35,426.73,O=Cc1ccccc1
anthracene,178.2334,873.0,0.486,615.18,NC(=O)c1ccccc1
anthraquinone,208.21632,900.0,0.681,653.05,c1ccccc1
antimony pentachloride,299.0205,662.54,0.129,449.15,SCc1ccccc1
antimony tribromide,361.469,904.0,0.269,553.15,OCCCc1ccccc1
antimony trichloride,228.1151,794.0,0.171,493.4,OC(=O)c1ccccc1
antimony triiodide,502.47041,1102.0,0.33,674.15,N#Cc1ccccc1
arsenic (III) bromide,314.63359,789.01,0.298,494.15,O=C(c1ccccc1)c2ccccc2
arsenic pentafluoride,169.913606,357.73,0.106,220.35,s1ccc2ccccc12
arsenic trichloride,181.27969,654.0,0.22,403.15,ClC(Cl)(Cl)c1ccccc1
arsenic trifluoride,131.9167996,530.21,0.363,330.95,FC(F)(F)c1ccccc1
arsenic triiodide,455.635,1101.22,0.357,697.15,ClC(=O)c1ccccc1
arsenic trioxide,197.84138,1200.0,0.0611,740.3,O=C(OOC(=O)c1ccccc1)c2ccccc2
arsine,77.94541,373.0,0.0105,210.67,CC(=O)OCc1ccccc1
astatine,210.0,1096.37,0.641,607.0,OCc1ccccc1
azulene,128.17352,773.48,0.355,515.16,O=C(OCc1ccccc1)c2ccccc2
benz[a]anthracene,228.29328,979.0,0.569,710.75,ClC(Cl)c1ccccc1
benzaldehyde,106.12404,695.0,0.313,451.9,CCOCc1ccccc1
benzamide,121.13872,824.0,0.559,563.15,O=COCc1ccccc1
benzene,78.11364,562.05,0.21,353.24,NCc1ccccc1
benzeneacetonitrile,117.15032,732.0,0.472,506.65,[Be++].[Br-].[Br-]
benzenemethanethiol,124.20652,712.0,0.299,468.15,[Be++].[Cl-].[Cl-]
benzenepropanol,136.19368,694.0,0.803,508.15,[Be++].[I-].[I-]
benzoic acid,122.12344,751.0,0.603,522.4,CC(C)C1CCC(=C)C=C1
benzonitrile,103.12344,699.35,0.366,464.15,CC1(C)C2CCC(=C)C1C2
benzophenone,182.2218,830.0,0.502,579.24,C1=CC=C(C=C1)C(=O)C2=CC=CC=C2
benzothiophene,134.20164,754.0,0.296,493.05,O=C1CCO1
benzotrichloride,195.4748,737.0,0.26,486.65,C#CC#C
benzotrifluoride,146.1119096,559.9,0.3,375.2,C1CCC(CC1)C2CCCCC2
benzoyl chloride,140.5688,697.0,0.416,470.15,ClCCOCCCl
benzoyl peroxide,242.231,884.0,0.914,669.0,CCCCC(CC)COC(=O)CCCCC(=O)OCC(CC)CCCC
benzyl acetate,150.1772,699.0,0.473,487.15,CCCCC(CC)COCC(CC)CCCC
benzyl alcohol,108.13992,720.15,0.367,477.85,CCCCC(CC)COC(=O)c1ccc(cc1)C(=O)OCC(CC)CCCC
benzyl benzoate,212.24808,820.0,0.59,596.65,CCCCC(CC)CNCC(CC)CCCC
benzyl chloride,126.58528,686.0,0.314,452.55,CCC(C)CSCC(C)CC
benzyl dichloride,161.03004,731.0,0.326,487.0,ClCOCCl
benzyl ethyl ether,136.19368,662.0,0.433,458.15,N#CCCOCCC#N
benzyl formate,136.15032,698.0,0.42,476.15,CC(C)c1ccc2ccccc2c1C(C)C
benzylamine,107.1552,684.0,0.401,457.65,CSCSC
beryllium bromide,168.820182,1216.86,0.361,793.15,Cl[Bi](Cl)Cl
beryllium chloride,79.917582,1238.03,0.366,755.15,CC(C)(c1ccc(O)cc1)c2ccc(O)cc2
beryllium iodide,262.821122,1238.03,0.366,760.15,B1NBNBN1
beta-phellandrene,136.23704,648.0,0.374,447.15,BrB(Br)Br
beta-pinene,136.23704,643.0,0.325,439.19,ClB(Cl)Cl
"beta-pinene, (1R)",136.23704,647.0,0.341,437.75,FB(F)F
beta-propiolactone,72.06356,686.0,0.358,435.15,[Br]
biacetylene,50.05988,478.02,0.1,283.46,Brc1ccccc1
bicyclohexyl,166.30668,727.0,0.428,512.19,FC(F)(Cl)Br
bis(2-chloroethyl) ether,143.01232,666.0,0.394,451.65,ClCBr
bis(2-ethylhexyl) adipate,370.57308,845.0,1.06,690.15,FC(Cl)(Cl)Br
bis(2-ethylhexyl) ether,242.44536,707.0,0.934,542.15,FC(F)Br
bis(2-ethylhexyl) terephthalate,390.56332,855.0,1.09,698.0,CCBr
bis(2-ethylhexyl)amine,241.46064,702.0,0.918,554.25,BrC(Br)Br
bis(2-methylbutyl) sulfide,174.35068,701.03,0.551,438.15,ClC(Cl)(Cl)Br
bis(chloromethyl) ether,114.95856,579.0,0.324,378.0,FC(F)=C(F)Br
bis(cyanoethyl) ether,124.1424,783.0,0.782,579.0,FC(F)(F)Br
bis(isopropyl)naphthalene,212.3348,808.25,0.605,581.25,C=CC=C.C=CC=C
bis(methylthio)methane,108.22852,624.0,0.306,421.15,CCCC
bismuth pentafluoride,303.972386,470.0,0.504,503.15,CCCCO
bismuth tribromide,448.69237,1220.0,0.288,726.15,CCCCOC(=O)C(C)CC
bismuth trichloride,315.33847,1179.0,0.304,720.15,CCCCOC(=O)CC(C)C
bisphenol a,228.29084,849.0,0.946,633.65,CCCCOC(C)=O
borazine,80.50086,521.2,0.092,326.15,CCCCOC(=O)C=C
boron tribromide,250.523,581.0,0.216,364.15,CCCCCCCCCCCCSCCCC
boron trichloride,117.1691,451.95,0.1505,285.65,CCCCOC=O
boron trifluoride,67.8062096,260.9,0.4337,173.35,CCCCCCC(=O)OCCCC
bromine,159.808,584.15,0.1189,331.9,CCCCCCCSCCCC
bromobenzene,157.0097,670.15,0.251,429.24,CCCCCCCCCCCCCCCCSCCCC
bromochlorodifluoromethane,165.3645064,426.15,0.187,269.14,CCCCCC(=O)OCCCC
bromochloromethane,129.38358,557.0,0.206,341.2,CCCCCCSCCCC
bromodichlorofluoromethane,181.8188032,512.9,0.187,269.14,CCCCOCC(C)C
bromodifluoromethane,130.9197464,411.98,0.205,257.67,CCCCOC(=O)C(C)C
bromoethane,108.9657,503.8,0.255,311.5,CCCCN=C=O
bromoform,252.73094,696.0,0.156,422.35,CCCC[N+]#[C-]
bromotrichloromethane,198.2731,606.0,0.192,378.05,CCCCS
bromotrifluoroethylene,160.9212096,432.0,0.175,270.65,CCCCOC(=O)C(C)=C
bromotrifluoromethane,148.9102096,340.15,0.17,215.26,CCCCCCCCC(=O)OCCCC
"butadiene (1,3 butadiene)",54.09164,425.37,0.193,268.74,CCCCCCCCCSCCCC
butane,58.1234,425.12,0.2,272.65,CCCCCCCC(=O)OCCCC
butanol,74.1228,563.05,0.594,390.81,CCCCCCCCSCCCC
butyl 2-methylbutanoate,158.24072,614.21,0.771,452.15,CCCCCCCCCCCCCCCSCCCC
butyl 3-methylbutanoate,158.24072,614.21,0.771,456.91,CCCCCSCCCC
butyl acetate,116.16008,575.4,0.439,399.26,CCCCOC(=O)CC
butyl acrylate,128.17108,598.0,0.482,420.55,CCCCOCCC
butyl benzoate,178.23096,724.0,0.577,523.15,CCCCCCCCCCCCCCCCCC(=O)OCCCC
butyl butanoate,144.21384,616.0,0.482,438.15,CCCCCCCCCCCCCCSCCCC
butyl decyl sulfide,230.4582,762.23,0.7,569.0,CCCCCCCCCCCCCSCCCC
butyl dodecyl sulfide,258.51196,787.27,0.754,597.0,CCCCCCCCCCCSCCCC
butyl formate,102.1332,559.0,0.388,379.25,CCCCOC(=O)CCCC
butyl heptanoate,186.29448,652.0,0.639,499.35,CCCCOC=C
butyl heptyl sulfide,188.37756,717.91,0.592,520.0,CCCCN
butyl hexadecyl sulfide,314.61948,832.33,0.795,645.0,CCCCc1ccccc1
butyl hexanoate,172.2676,637.0,0.579,481.15,CCCCC1CCCCC1
butyl hexyl sulfide,174.35068,701.03,0.551,500.0,CCCCC1CCCC1
butyl isobutyl ether,130.23032,563.33,0.415,424.15,CCCC=O
butyl isobutyrate,144.21384,602.0,0.395,436.35,CCCC(O)=O
butyl isocyanate,99.1326,568.0,0.415,388.15,CCCC(=O)OC(=O)CCC
butyl isocyanide,83.1332,579.93,0.428,397.65,CCCC#N
butyl mercaptan,90.1894,570.1,0.271,371.61,CC1(C)C2CCC(C2)C1=C
butyl methacrylate,142.19796,619.0,0.447,436.15,CC1(C)C2CCC1(C)C(=O)C2
butyl nonanoate,214.34824,674.0,0.728,503.0,NC(Cl)=O
butyl nonyl sulfide,216.43132,748.42,0.667,553.0,O=C=O
butyl octanoate,200.32136,667.0,0.699,513.65,O=C=O
butyl octyl sulfide,202.40444,733.68,0.631,537.0,S=C=S
butyl pentadecyl sulfide,300.5926,821.75,0.794,635.0,S=C=S
butyl pentyl sulfide,160.3238,681.56,0.508,480.0,C=O
butyl propanoate,130.18696,594.6,0.464,418.26,C=O
butyl propyl ether,116.20344,558.21,0.307,391.25,BrC(Br)(Br)Br
butyl stearate,340.59016,764.0,1.025,623.15,ClC(Cl)(Cl)Cl
butyl tetradecyl sulfide,286.56572,810.53,0.787,625.0,FC(F)(F)F
butyl tridecyl sulfide,272.53884,798.63,0.774,611.0,IC(I)(I)I
butyl undecyl sulfide,244.48508,775.15,0.729,583.0,ClC(Cl)=O
butyl valerate,158.24072,629.0,0.596,459.65,FC(F)=O
butyl vinyl ether,100.16068,536.0,0.38,366.97,FC(F)=O
butylamine,73.13808,531.9,0.329,350.55,O=C=S
butylbenzene,134.22116,660.5,0.394,456.46,CCCCCCCCCCCCCCCCOC(=O)C(C)=C
butylcyclohexane,140.2688,667.0,0.274,454.13,[Cl]
butylcyclopentane,126.24192,621.0,0.372,429.76,O=[Cl]=O
butyraldehyde,72.10692,537.2,0.277,347.95,CCCC=O
butyric acid,88.10632,615.7,0.681,436.42,FCl
butyric anhydride,158.19736,644.0,0.655,470.93,O=[Cl]
butyronitrile,69.10632,582.35,0.371,390.75,F[Cl](F)(F)(F)F
camphene,136.23704,638.0,0.296,433.65,FCCl
camphor,152.23644,709.0,0.319,480.57,ClC(Cl)Cl
carbamic chloride,79.48572,517.0,0.445,334.65,COCCl
carbon dioxide,44.0098,304.19,0.2276,194.7,ClC(=C)C=C
carbon dioxide,44.0098,304.19,0.228,194.67,O[S](Cl)(=O)=O
carbon disulfide,76.143,552.0,0.1107,319.15,FC(F)=C(F)Cl
carbon disulfide,76.143,552.0,0.111,319.37,FC(F)(F)Cl
carbon monoxide,28.0104,132.92,0.0663,81.7,CC(C)CCC[C@@H](C)[C@H]1CC[C@H]2[C@@H]3CC=C4C[C@@H](O)CC[C@]4(C)[C@H]3CC[C@]12C
carbon monoxide,28.0104,132.92,0.066,81.7,[Cr].ClOCl
carbon tetrabromide,331.627,724.91,0.501,462.65,C(Br)(Br)(Br)Br
carbon tetrachloride,153.8218,556.35,0.193,349.79,C1CC\C=C/C=C\C1
carbon tetrafluoride,88.0046128,227.5,0.179,145.09,C\1C\C=C/CC\C=C1
carbon tetraiodide,519.62888,961.09,0.181,591.61,C(I)(I)(I)I
carbonyl chloride,98.9158,455.0,0.201,280.71,CC\C=C/c1ccccc1
carbonyl fluoride,66.0072064,297.0,0.283,190.05,C(=O)(F)F
carbonyl fluoride,66.0072064,297.0,0.283,188.58,C[C@@H]1C[C@H](C)CC(C)(C)C1
carbonyl sulfide,60.0764,378.8,0.097,223.0,CC(C)(C)\C=C/C(C)(C)C
cetyl methacrylate,310.52052,793.0,0.976,641.0,C[C@@H]1CCC[C@@H]1C
chlorine,70.9054,417.15,0.069,239.12,ClCl
chlorine dioxide,67.4515,465.0,0.3564,284.05,ClC\C=C/Cl
chlorine heptoxide,182.9012,565.78,0.2,355.15,C[C@H]1CCC[C@@H](C)C1
chlorine monofluoride,54.4511032,282.32,0.276,172.05,C[C@H]1CC[C@@H](C)C1
chlorine monoxide,86.9048,444.68,0.303,275.35,C\C=C/C=C
chlorine pentafluoride,130.444716,416.0,0.316,260.05,C[C@@H]1CC[C@H](C)CC1
chlorine trifluoride,92.4479096,368.4,0.173,284.9,CC\C=C/Br
chloroacetaldehyde,78.49792,555.0,0.33,358.0,CCCCCCCC\C=C/Br
chloroacetic acid,94.49732,686.0,0.551,462.5,CCCCCCCCCC\C=C/Br
chloroacetyl chloride,112.94268,581.0,0.354,379.15,CCCCCCCCCCCCCCCCCC\C=C/Br
chlorobenzene,112.5584,632.35,0.25,404.87,CCCCCCCCCCCCCCC\C=C/Br
chlorodifluoromethane,86.4684464,369.3,0.219,232.32,CCCCC\C=C/Br
chlorodimethylsilane,94.61578,472.0,0.253,308.65,CCCCCCCCCCCCCC\C=C/Br
chlorofluoromethane,68.4779832,427.0,0.211,264.06,CCCC\C=C/Br
chloroform,119.37704,536.4,0.222,334.33,CCCCCCCCCCCCCCCCC\C=C/Br
chloromethyl methyl ether,80.5138,521.0,0.27,332.65,CCCCCCC\C=C/Br
chloropentafluoroethane,154.466716,353.15,0.251,234.04,CCCCCCCCCCCCCCCC\C=C/Br
chloroprene,88.5364,525.0,0.197,332.55,CCCCCC\C=C/Br
chlorosulfonic acid,116.52484,700.0,0.301,427.0,CCCCCCCCCCCCC\C=C/Br
chlorotrifluoroethylene,116.4699096,379.15,0.244,244.8,CCC\C=C/Br
chlorotrifluoromethane,104.4589096,302.0,0.172,191.74,C\C=C/Br