name,molweight,critical temperature (K),acentric factor,boiling point (K),SMILES
fluorene,166.2224,826.0,0.404,570.44,CCCCCCC(O)=O
fluorine,37.9968064,144.12,0.053,84.95,CCCCCCCOC(C)=O
fluorine oxide,53.9962064,215.0,0.075,128.4,CCCCCCCOC(=O)CCC
fluorobenzene,96.1041032,560.09,0.247,357.88,CCCCCCCOC=O
fluoroform,70.0141496,299.01,0.264,191.09,CCCCCCCOC(=O)CCCCC
formaldehyde,30.02628,408.0,0.282,254.05,CCCCCCCS
formamide,45.04096,771.0,0.453,493.0,CCCCCCCCCOC(=O)c1ccccc1C(=O)OCCCCCCC
formanilide,121.13872,787.0,0.545,544.15,CCCCCCCOC(=O)CCCC
formic acid,46.02568,588.0,0.317,373.71,CCCCCCCOC(=O)CC
fumaric acid,116.07336,771.0,0.989,563.15,CCCCCCCN
furan,68.07516,490.15,0.202,304.5,CCCCCCCc1ccccc1
furfural,96.08556,670.15,0.368,434.85,CCCCCCCC1CCCCC1
furfuryl alcohol,98.10144,632.0,0.734,443.15,CCCCCCCC1CCCC1
gallium trichloride,176.0811,694.0,0.4577,474.15,CCC=CCC
gamma-butyrolactone,86.09044,739.0,0.369,477.15,Clc1c(Cl)c(Cl)c(Cl)c(Cl)c1Cl
gamma-terpinene,136.23704,661.0,0.376,456.15,ClC1=C(Cl)C(Cl)(Cl)C(=C1Cl)Cl
germane,76.64176,312.2,0.1506,185.0,ClC(Cl)(Cl)C(Cl)(Cl)Cl
"germane, trichloro",179.97604,559.78,0.17,348.45,C[Si](C)(C)O[Si](C)(C)O[Si](C)(C)O[Si](C)(C)O[Si](C)(C)O[Si](C)(C)O[Si](C)(C)C
germanium bromide,392.226,718.0,0.169,459.5,CCCCCCCCCCCCCCCC=O
germanium chloride,214.4208,553.2,0.123,359.7,CCCCCCCCCCCCCCCC
glutaric acid,132.11612,807.0,0.959,595.54,CCCCCCCCCCCCCCCC#N
glutaric anhydride,114.10084,838.0,0.537,562.69,CCCCCCCCCCCCCCCC(O)=O
glutaronitrile,94.11612,782.0,0.603,559.15,CCCCCCCCCCCCCCCCN
glycerol,92.09472,850.0,0.513,561.0,CCCCCCCCCCCCCCCCC1CCCCC1
glycerol 1-monooleate,356.5462,885.0,0.992,714.0,CCCCCCCCCCCCCCCCC1CCCC1
glyceryl triacetate,218.20656,704.0,0.839,532.15,CCC=CC=C
glycolic acid,76.05196,616.0,1.059,443.0,CCc1c(CC)c(CC)c(CC)c(CC)c1CC
glyoxal,58.03668,495.0,0.413,323.55,FC(F)(F)C(=O)C(F)(F)F
guaiacol,124.13932,697.0,0.571,478.15,FC(F)(F)C(F)(F)F
halothane,197.3818496,496.0,0.275,323.35,FC(F)=C(F)C(F)(F)F
heneicosane,296.58036,778.0,0.942,629.65,Cc1c(C)c(C)c(C)c(C)c1C
heneicosanenitrile,307.56328,824.05,0.812,670.15,C[Si]1(C)O[Si](C)(C)O[Si](C)(C)O1
heneicosylamine,311.59504,822.4,0.844,668.15,CC1=C(C)C2(C)C(=C(C)C12C)C
heneicosylbenzene,372.67812,860.93,0.733,702.15,CN([SiH](C)C)[Si](C)(C)C
heneicosylcyclopentane,364.69888,850.13,0.705,693.15,C[Si](C)(C)O[Si](C)(C)C
heptadecanal,254.45636,752.2,0.849,598.15,O=C=NCCCCCCN=C=O
heptadecane,240.47284,736.0,0.77,575.3,NCCCCCCN
heptadecanenitrile,251.45576,779.15,0.835,622.15,C1CCCNCC1
heptadecanoic acid,270.45576,793.0,1.028,635.75,CCCCCC=O
heptadecanol (mixed primary isomers),256.47224,767.2,0.798,599.15,CCCCCC
heptadecylamine,255.48752,767.8,0.869,616.15,C[C@@H](Cl)CC[C@H](C)Cl
heptadecylbenzene,316.5706,826.0,0.92,662.15,CCCCCC#N
heptadecylcyclohexane,322.61824,823.97,0.748,664.15,CCCCCC(O)=O
heptadecylcyclopentane,308.59136,808.79,0.758,650.15,CCCCCCOC(=O)C(C)(C)C
heptafluoropropane,170.0297624,374.83,0.355,256.79,CCCCCCOC(=O)C(C)CC
heptane,100.20404,540.2,0.35,371.58,CCCCCCOC(C)=O
heptanedioic acid,160.16988,805.0,1.116,615.25,CCCCCCOC(=O)CCC
heptanenitrile,111.18696,643.1,0.518,457.65,CCCCCCOC=O
heptanoic acid,130.18696,677.3,0.756,496.15,CCCCCCOC(=O)CCCCCC
heptyl acetate,158.24072,637.0,0.595,465.55,CCCCCCOC(=O)CCCCC
heptyl butanoate,186.29448,675.5,0.496,498.25,CCCCCCOC(=O)CC(C)C
heptyl formate,144.21384,628.0,0.534,451.25,CCCCCCS
heptyl hexanoate,214.34824,682.0,0.759,534.15,CCCCCCOC
heptyl mercaptan,132.27004,645.0,0.419,450.09,CCCCCCOC(=O)CCCC
heptyl nonyl phthalate,390.56332,841.0,1.094,687.0,CCCCCCOC(=O)CC
heptyl pentanoate,200.32136,667.0,0.699,518.35,CCCCCCN
heptyl propanoate,172.2676,659.6,0.508,483.15,CCCCCCc1ccccc1
heptyl undecyl phthalate,418.61708,878.0,1.021,717.0,CCCCCCC1CCCCC1
heptylamine,115.21872,607.0,0.511,430.05,CCCCCCC1CCCC1
heptylbenzene,176.3018,714.0,0.529,519.25,OCCC#N
heptylcyclohexane,182.34944,708.63,0.498,518.06,NN
heptylcyclopentane,168.32256,679.0,0.515,497.3,N(Nc1ccccc1)c2ccccc2
hex-3-ene,84.16128,506.59,0.25,339.95,Br
"hexachloro-1,3-butadiene",260.7602,738.0,0.168,486.15,Cl
hexachlorobenzene,284.7822,825.0,0.497,582.55,C#N
hexachlorocyclopentadiene,272.7712,746.0,0.383,512.15,C#N
hexachloroethane,236.7382,695.0,0.239,458.0,SS
hexadecamethylheptasiloxane,533.15202,671.8,0.887,559.94,F
hexadecanal,240.42948,740.1,0.833,584.15,I
hexadecane,226.44596,723.0,0.717,560.01,OO
hexadecanenitrile,237.42888,768.13,0.823,609.15,[SeH2]
hexadecanoic acid,256.42888,785.0,0.983,624.15,S
hexadecylamine,241.46064,757.5,0.826,601.15,[TeH2]
hexadecylcyclohexane,308.59136,813.42,0.741,652.16,OCC#N
hexadecylcyclopentane,294.56448,797.25,0.748,637.16,NO
hexadiene,82.1454,526.51,0.25,344.64,CC(C)Cc1ccc(cc1)C(C)C(O)=O
hexaethylbenzene,246.4362,746.0,0.753,571.16,C1Cc2ccccc2C1
hexafluoroacetone,166.0228192,357.14,0.364,245.88,C1C=Cc2ccccc12
hexafluorobenzene,186.0564192,516.73,0.395,353.41,[nH]1ccc2ccccc12
hexafluoroethane,138.0124192,292.8,0.249,194.95,[I]
hexafluoropropylene,150.0234192,368.0,0.205,243.55,F[I](F)(F)(F)(F)(F)F
hexamethylbenzene,162.27492,758.0,0.496,536.6,Ic1ccccc1
hexamethylcyclotrisiloxane,222.46362,554.2,0.474,408.26,IC(I)I
hexamethyldewarbenzene,162.27492,697.15,0.437,440.0,[Fe+5].[C--]#[O+].[C--]#[O+].[C--]#[O+].[C--]#[O+].[C--]#[O+]
hexamethyldisilazane,161.3946,544.0,0.51,399.15,C[Si](C)(C)N[Si](C)(C)C
hexamethyldisiloxane,162.37932,518.7,0.415,373.67,CCCCCCCC(=O)OCCC(C)C
hexamethylene diisocyanate,168.19556,720.8,0.729,528.15,CC(C)C
hexamethylenediamine,116.20652,660.0,0.635,473.0,CC(C)CO
hexamethyleneimine,99.17596,624.0,0.345,411.15,CC(C)=C
hexanal,100.16068,591.0,0.387,401.45,CCCCCC=O
hexane,86.17716,507.6,0.301,341.88,CC(C)COC(=O)CC(C)C
"hexane, 2,5-dichloro-, (R*,S*)-",155.06668,633.09,0.397,444.73,CC(C)CCC(=O)OCC(C)C
hexanenitrile,97.16008,622.05,0.474,436.75,CC(C)COC(C)=O
hexanoic acid,116.16008,660.2,0.73,478.85,CC(C)COC(=O)C=C
"hexyl 2,2-dimethylpropanoate",186.29448,677.2,0.621,489.73,CCCC(=O)OCC(C)C
hexyl 2-methylbutyrate,186.29448,652.0,0.639,489.73,CC(C)COCC(C)C
hexyl acetate,144.21384,618.0,0.54,444.65,CC(C)COC=O
hexyl butanoate,172.2676,657.2,0.474,479.15,CCCCCCC(=O)OCC(C)C
hexyl formate,130.18696,607.0,0.483,428.65,CCCCCCCC(=O)CC(C)C
hexyl heptanoate,214.34824,682.0,0.759,534.15,CCCCCC(=O)OCC(C)C
hexyl hexanoate,200.32136,667.0,0.699,519.15,CC(C)COC(=O)C(C)C
hexyl isovalerate,186.29448,652.0,0.639,489.73,CC(C)CN=C=O
hexyl mercaptan,118.24316,623.0,0.368,425.81,CC(C)C[N+]#[C-]
hexyl methyl ether,116.20344,558.21,0.307,399.25,CC(C)CS
hexyl pentanoate,186.29448,652.0,0.639,499.45,CC(C)COC(=O)C(C)=C
hexyl propanoate,158.24072,640.0,0.488,463.15,CCCCC(=O)OCC(C)C
hexylamine,101.19184,584.0,0.458,405.85,CCC(=O)OCC(C)C
hexylbenzene,162.27492,698.0,0.479,499.26,CC(C)COC=C
hexylcyclohexane,168.32256,691.81,0.456,497.86,CC(C)CN
hexylcyclopentane,154.29568,667.67,0.442,476.26,CC(C)Cc1ccccc1
hydracrylonitrile,71.07884,690.0,0.826,494.15,CC(C)CC1CCCCC1
hydrazine,32.04524,653.15,0.3142,386.65,CC(C)CC1CCCC1
hydrazobenzene,184.24076,939.0,0.672,679.0,CC(C)C=O
hydrogen bromide,80.91194,363.15,0.0693,206.45,CC(C)C(O)=O
hydrogen chloride,36.46064,324.65,0.1315,188.15,CC(C)C#N
hydrogen cyanide,27.02568,456.65,0.41,299.15,CC(C)CCCCCCC=O
hydrogen cyanide,27.02568,456.65,0.41,298.85,CC(C)CCCCCCCO
hydrogen disulfide,66.14788,542.39,0.366,343.85,CC(C)CCCCCO
hydrogen fluoride,20.0063432,461.15,0.3822,292.67,CC(C)CCOC(=O)C(C)C
hydrogen iodide,127.91241,423.85,0.0381,237.55,CC(C)CCOC(C)=O
hydrogen peroxide,34.01468,730.15,0.3582,423.35,CC(C)CCOC=O
hydrogen selenide,80.97588,411.15,0.0542,231.15,CCCCCC(=O)OCCC(C)C
hydrogen sulfide,34.08188,373.53,0.0942,212.8,CC(C)CCOC(=O)CC(C)C
hydrogen telluride,129.61588,438.04,0.289,271.15,CCCCC(=O)OCCC(C)C
hydroxyacetonitrile,57.05196,664.0,0.801,467.0,CCC(=O)OCCC(C)C
hydroxylamine,33.02996,574.0,0.694,383.0,CC(C)CCC1CCCCC1
ibuprofen,206.28472,777.0,0.823,588.0,CC1=CC(=O)CC(C)(C)C1
indane,118.1784,684.9,0.309,451.12,CC1(C)CC(CC(C)(CN=C=O)C1)N=C=O
indene,116.16252,687.0,0.335,455.77,OC(=O)c1cccc(c1)C(O)=O
indole,117.15032,790.0,0.376,526.15,ClC(=O)c1cccc(c1)C(Cl)=O
iodine,253.80894,819.15,0.1115,457.56,C[C@@]1(CC[C@H]2C(=CC[C@@H]3[C@]2(C)CCC[C@@]3(C)C(O)=O)C1)C=C
iodine heptafluoride,259.8932924,447.53,0.122,277.95,CC(=C)C=C
iodobenzene,204.01017,721.15,0.247,461.6,CC(=C)OC(C)=O
iodoform,393.73235,794.55,0.193,491.16,CC(C)CC(=O)OC(C)C
iron pentacarbonyl,195.899,607.2,0.091,376.15,CC(C)OC(C)=O
isoagatholal,304.47288,790.0,1.083,628.0,CC(C)OC(=O)C=C
isoamyl caprylate,214.34824,682.0,0.759,542.21,CC(C)O
isobutane,58.1234,407.8,0.184,261.43,CCCC(=O)OC(C)C
isobutanol,74.1228,547.78,0.585,380.81,CCCCCCCCCC(=O)OC(C)C
isobutene,56.10752,417.9,0.189,266.25,CC(C)OC=O
"isobutene, trimer",168.32256,656.77,0.548,453.15,CC(C)OC(=O)C(C)C
isobutyl 3-methylbutanoate,158.24072,614.21,0.771,441.65,CC(C)COC(C)C
isobutyl 4-methylpentanoate,172.2676,637.0,0.579,445.15,CC(C)[N+]#[C-]
isobutyl acetate,116.16008,560.8,0.434,389.8,CC(C)S
isobutyl acrylate,128.17108,587.0,0.455,410.0,CC(C)OC(=O)C(C)=C
isobutyl butanoate,144.21384,611.0,0.422,430.05,CCCCCCCC(=O)OC(C)C
isobutyl ether,130.23032,562.0,0.424,395.76,CCCCC(=O)OC(C)C
isobutyl formate,102.1332,551.35,0.39,371.22,CC(C)Sc1ccccc1
isobutyl heptanoate,186.29448,652.0,0.639,481.15,CCC(=O)OC(C)C
isobutyl heptyl ketone,184.32196,658.0,0.649,491.4,CCCCCCCCCCCCCC(=O)OC(C)C
isobutyl hexanoate,172.2676,637.0,0.579,427.05,CC(C)OC=C
isobutyl isobutyrate,144.21384,602.0,0.403,420.65,CC(C)OC(C)(C)C
isobutyl isocyanate,99.1326,568.0,0.415,379.15,CC(C)N
isobutyl isocyanide,83.1332,563.17,0.397,383.15,CC(C)C1CCCCC1
isobutyl mercaptan,90.1894,559.0,0.253,361.64,CC(C)C1CCCC1
isobutyl methacrylate,142.19796,612.0,0.421,428.15,CC(C)C1CC1
isobutyl pentanoate,158.24072,629.0,0.596,452.15,CCCCCCCCCCCCCCCCCCNC(C)C
isobutyl propanoate,130.18696,592.0,0.384,409.75,c1ccc2cnccc2c1
isobutyl vinyl ether,100.16068,536.0,0.38,356.15,o1cccn1
isobutylamine,73.13808,513.73,0.363,340.88,OC(=O)CC(=C)C(O)=O
isobutylbenzene,134.22116,650.0,0.382,445.94,C=C=O
isobutylcyclohexane,140.2688,667.0,0.274,444.45,CC(O)C(O)=O
isobutylcyclopentane,126.24192,617.21,0.33,421.1,CC(O)C#N
isobutyraldehyde,72.10692,507.0,0.362,337.25,CC(=O)CCC(O)=O
isobutyric acid,88.10632,605.0,0.614,427.65,CC(=C)C1CCC(=CC1)C
isobutyronitrile,69.10632,565.0,0.338,376.76,NCCCC[C@H](N)C(O)=O
isodecanal,156.2682,657.0,0.642,470.15,Cc1cccc(Br)c1
isodecanol,158.28408,644.0,0.913,493.0,Nc1cccc(Cl)c1
isooctanol,130.23032,600.92,0.733,459.15,ClC(=O)c1cccc(Cl)c1
isopentyl 2-methylpropanoate,158.24072,640.0,0.488,441.65,[O-][N+](=O)c1cccc(Cl)c1
isopentyl acetate,130.18696,586.1,0.489,415.15,Oc1cccc(Cl)c1
isopentyl formate,116.16008,578.0,0.409,397.25,Cc1cccc(Cl)c1
isopentyl hexanoate,186.29448,652.0,0.639,498.65,Cc1cccc(O)c1
isopentyl isovalerate,172.2676,637.0,0.579,467.15,CC(C)c1cccc(C)c1
isopentyl pentanoate,172.2676,637.0,0.579,473.73,Brc1cccc(Br)c1
isopentyl propanoate,144.21384,611.0,0.462,432.65,Clc1cccc(Cl)c1
isopentylcyclohexane,154.29568,674.01,0.413,469.65,CCc1cccc(CC)c1
isophorone,138.20956,715.0,0.4,488.35,Fc1cccc(F)c1
isophorone diisocyanate,222.2872,765.0,0.666,562.0,CC(C)c1cccc(c1)C(C)C
isophthalic acid,166.13324,1007.0,1.061,753.0,CC(C)c1cccc(c1)C(C)C.O[O-]
isophthaloyl chloride,203.02396,768.0,0.646,549.0,[O-][N+](=O)c1cccc(c1)[N+]([O-])=O
isopimaric acid,302.457,807.1,0.791,623.1,C=Cc1cccc(C=C)c1
isoprene,68.11852,484.0,0.158,307.21,CCc1cccc(N)c1
isopropenyl acetate,100.11732,555.5,0.355,367.15,CCc1cccc(O)c1
isopropyl 3-methylbutanoate,144.21384,599.25,0.472,415.15,CCc1cccc(C=C)c1
isopropyl acetate,102.1332,532.0,0.368,361.65,CCc1cccc(S)c1
isopropyl acrylate,114.1442,560.0,0.405,383.15,CCc1cccc(C)c1
isopropyl alcohol,60.09592,508.31,0.669,355.41,Cc1cccc(F)c1
isopropyl butanoate,130.18696,574.0,0.464,404.15,Cc1cccc(C=C)c1
isopropyl decanoate,214.34824,682.0,0.759,542.21,Cc1cccc(S)c1
isopropyl formate,88.10632,518.5,0.313,341.25,Nc1cccc(c1)[N+]([O-])=O
isopropyl isobutanoate,130.18696,584.0,0.456,393.85,Cc1cccc(c1)[N+]([O-])=O
isopropyl isobutyl ether,116.20344,537.0,0.379,371.2,Nc1cccc(N)c1
isopropyl isocyanide,69.10632,541.04,0.353,360.35,c1ccc(cc1)c2cccc(c2)c3ccccc3
isopropyl mercaptan,76.16252,517.0,0.214,325.71,Cc1ccc(N)cc1N
isopropyl methacrylate,128.17108,592.33,0.432,398.15,Cc1cccc(N)c1
isopropyl octanoate,186.29448,652.0,0.639,489.73,Cc1cccc(C)c1
isopropyl pentanoate,144.21384,602.0,0.395,436.35,OC(=O)\C=C/C(O)=O
isopropyl phenyl sulfide,152.26028,708.21,0.386,481.15,O=C1OC(=O)C=C1
isopropyl propanoate,116.16008,553.0,0.432,383.15,N#C\C=C/C#N
isopropyl tetradecanoate,270.45576,738.0,0.935,588.0,OC(=O)CC(O)=O
isopropyl vinyl ether,86.1338,505.58,0.323,328.65,N#CCC#N
isopropyl-tert-butyl-ether,116.20344,558.21,0.307,378.66,-
isopropylamine,59.1112,471.85,0.276,304.92,CC(C)N
isopropylcyclohexane,126.24192,627.0,0.33,427.91,CC(C)C1CCCCC1
isopropylcyclopentane,112.21504,593.0,0.303,399.58,CC(C)=CC(C)=O
isopropylcyclopropane,84.16128,506.65,0.259,331.47,Cc1cc(C)cc(C)c1
isopropyloctadecylamine,311.59504,783.99,0.817,635.98,CC(O)C(C)O
isoquinoline,129.16132,803.15,0.304,516.37,CC(Br)C(C)Br
isoxazole,69.06296,590.0,0.257,367.9,CC(Cl)C(C)Cl
itaconic acid,130.10024,821.0,0.925,601.0,CC(C(C)c1ccccc1)c2ccccc2
ketene,42.03728,370.0,0.126,223.34,CC(=C)C=O
lactic acid,90.07884,675.0,1.022,490.0,CC(=C)C(O)=O
lactonitrile,71.07884,643.0,0.796,457.0,CC(=C)C#N
levulinic acid,116.11672,738.0,0.756,530.0,CCC(CC)OC
limonene,136.23704,660.0,0.313,451.15,CCCC(C)OC
lysine,146.18944,821.0,1.013,615.0,CCC=C(C)C(=O)OC
m-bromotoluene,171.03658,699.0,0.318,456.85,CCC(C)COC
m-chloroaniline,127.57308,751.0,0.42,501.65,CCC(C)C(=O)OC
m-chlorobenzoyl chloride,175.01356,724.0,0.454,498.0,COC(=O)CC=C
m-chloronitrobenzene,157.556,742.0,0.492,508.75,CCC=CCC(=O)OC
m-chlorophenol,128.5578,729.0,0.486,487.0,COC(=O)C=C(C)C
m-chlorotoluene,126.58528,660.18,0.318,435.45,COC(=O)CC(C)=CC
m-cresol,108.13992,705.85,0.448,475.43,COCCC(C)C
m-cymene,134.22116,649.0,0.378,448.23,COC(C)=O
m-dibromobenzene,235.90576,761.0,0.293,491.15,COC(=O)CC(C)=O
m-dichlorobenzene,147.00316,683.95,0.279,446.23,COC(=O)C=C
m-diethylbenzene,134.22116,663.0,0.354,454.29,CO
m-difluorobenzene,114.0945664,552.94,0.32,363.66,COC(=O)c1ccccc1
m-diisopropylbenzene,162.27492,684.0,0.359,476.33,CBr
m-diisopropylbenzene hydroperoxide,194.27372,812.0,0.963,620.0,CCCC(=O)OC
m-dinitrobenzene,168.10884,808.0,0.667,575.5,CCCCOC
m-divinylbenzene,130.1894,692.0,0.373,472.65,CCCCSC
m-ethylaniline,121.18208,695.58,0.433,487.15,CCl
m-ethylphenol,122.1668,716.45,0.519,491.57,COC(=O)CCl
m-ethylstyrene,132.20528,676.81,0.376,463.2,COC(Cl)=O
m-ethylthiophenol,138.2334,724.15,0.374,484.15,C[SiH2]Cl
m-ethyltoluene,120.19428,637.15,0.365,434.48,COC(=O)\C=C/C
m-fluorotoluene,110.1309832,590.48,0.311,388.15,CC1=CC(=CC=C1)F
m-methylstyrene,118.1784,657.0,0.349,444.75,COC(=O)CC#N
m-methylthiophenol,124.20652,716.34,0.329,468.25,CCCCCCCCCC(=O)OC
m-nitroaniline,138.12592,815.0,0.73,579.0,CCCCCCCCCCSC
m-nitrotoluene,137.13812,734.0,0.492,505.0,C[SiH](Cl)Cl
m-phenylenediamine,108.143,824.0,0.546,560.0,CCCCCCCCCCCC(=O)OC
m-terphenyl,230.30916,883.0,0.651,648.15,CCCCCCCCCCCCSC
m-toluenediamine,122.16988,804.0,0.579,557.15,CCOC
m-toluidine,107.1552,707.0,0.435,476.52,CCC(C)=O
m-xylene,106.1674,617.0,0.327,412.27,CCSC
maleic acid,116.07336,773.0,0.998,565.0,CCCCCCCCCCCCCCCCCSC
maleic anhydride,98.05808,721.0,0.546,475.15,CCCCCCC(=O)OC
maleonitrile,78.07336,704.0,0.558,492.0,CCCCCCCSC
malonic acid,104.06236,805.0,0.942,580.0,CCCCCCCCCCCCCCCCSC
malononitrile,66.06236,715.0,0.502,491.5,CCCCCC(=O)OC
mercuric bromide,360.398,1012.0,0.292,595.15,CI
mercuric chloride,271.4954,973.0,0.284,577.15,COC(=O)C(C)C
mercuric iodide,454.39894,1072.0,0.189,627.15,COCC(C)C
mesityl oxide,98.1448,600.0,0.327,402.95,CN=C=O
mesitylene,120.19428,637.3,0.399,437.89,C[N+]#[C-]
"meso-2,3-butanediol",90.1222,609.07,1.103,452.0,COC(=O)CC(C)C
"meso-2,3-dibromobutane",215.91552,651.35,0.403,430.45,CC(=C)C(C)=O
"meso-2,3-dichlorobutane",127.01292,592.85,0.278,389.15,COC(C)C
"meso-2,3-diphenylbutane",210.31892,778.3,0.452,570.25,CC(C)C(C)=O
methacrolein,70.09104,530.0,0.246,341.15,CSC(C)C
methacrylic acid,86.09044,662.0,0.332,434.15,COC(=O)C(C)O
methacrylonitrile,67.09044,554.0,0.301,363.45,CS
methane,16.04276,190.56,0.012,111.66,COC(=O)C(C)=C
methanesulfonyl chloride,114.55232,676.0,0.3,434.65,CCCCCCCCCCCCCCCCCCCSC
methenamine,140.18824,837.0,0.299,554.0,CCCCCCCCC(=O)OC
methoxyacetic acid,90.07884,691.0,0.625,478.26,CCCCCCCCCSC
methoxypropanol,90.1222,569.0,0.759,393.15,CCCCCCCCCCCCCCCCCCSC
"methyl 1,2-dimethylpropyl ether",102.17656,527.59,0.329,356.15,CCCCCCCC(=O)OC
methyl 1-ethylpropyl ether,102.17656,530.71,0.359,361.15,CCCCCCCCSC
methyl 1-methylbutyl ether,102.17656,535.12,0.359,364.15,CCCCCCCC\C=C/CCCCCCCC(=O)OC
"methyl 2,2-dimethylpropanoate",116.16008,565.5,0.404,374.25,CCCCCCCCCCCCCCCSC
"methyl 2,2-dimethylpropyl ether",102.17656,531.9,0.298,356.15,CCCCC(=O)OC
methyl 2-ethylbutanoate,130.18696,584.0,0.456,409.15,CCCCCOC
methyl 2-methyl-2-butenoate,114.1442,569.0,0.434,412.15,CCCCCSC
methyl 2-methyl-2-pentenoate,128.17108,592.33,0.432,447.69,CSc1ccccc1
methyl 2-methylbutyl ether,102.17656,533.65,0.359,363.15,CCC(=O)OC
methyl 2-methylbutyrate,116.16008,572.95,0.412,388.55,CCCSSC
methyl 3-butenoate,100.11732,555.5,0.355,385.15,CCCOC
methyl 3-hexenoate,128.17108,592.33,0.432,447.69,CCCC(C)=O
methyl 3-methyl-2-butenoate,114.1442,569.0,0.434,409.65,CCCO[S](=O)(=O)OC
methyl 3-methyl-3-pentenoate,128.17108,592.33,0.432,447.69,CCCSC
methyl 3-methylbutyl ether,102.17656,533.65,0.359,363.15,COC(=O)c1ccccc1O
methyl acetate,74.07944,506.55,0.331,330.09,CCC(C)OC
methyl acetoacetate,116.11672,642.0,0.513,444.85,C[SiH3]
methyl acrylate,86.09044,536.0,0.348,353.35,COC(C)(C)C
methyl alcohol,32.04216,512.64,0.564,337.85,CCC(C)(C)OC
methyl benzoate,136.15032,693.0,0.421,472.65,CCCCCCCCCCCCCCSC
methyl bromide,94.93882,467.0,0.192,276.71,COC(=O)\C=C\C
methyl butanoate,102.1332,554.5,0.378,375.9,CC\C=C(/C)C(=O)OC
methyl butyl ether,88.14968,512.74,0.313,343.31,CC/C=C/C(=O)OC
methyl butyl sulfide,104.21628,593.0,0.323,396.58,CCCCSC
methyl chloride,50.48752,416.25,0.153,248.93,COC(=O)C\C=C\C
methyl chloroacetate,108.5242,600.0,0.434,402.97,C[Si](Cl)(Cl)Cl
methyl chloroformate,94.49732,525.0,0.393,344.0,CCCCCCCCCCCCCSC
methyl chlorosilane,80.5889,442.0,0.225,281.85,CCCCCCCCCCC(=O)OC
methyl cis-2-butenoate,100.11732,555.5,0.355,391.15,CCCCCCCCCCCSC
methyl cis-3-methyl-2-pentenoate,128.17108,592.33,0.432,447.69,COC=C
methyl cyanoacetate,99.08924,687.0,0.541,478.24,CCC(C)(C)NC
methyl decanoate,186.29448,671.0,0.699,505.0,CNC(C)C(C)C
methyl decyl sulfide,188.37756,717.91,0.592,520.0,CCCC(C)NC
methyl dichlorosilane,115.03366,483.0,0.276,314.7,CNCC(C)(C)C
methyl dodecanoate,214.34824,712.0,0.692,540.0,CCC(C)CNC
methyl dodecyl sulfide,216.43132,748.42,0.667,553.0,CNCCC(C)C
methyl ethyl ether,60.09592,437.8,0.222,280.5,CCCCNC
methyl ethyl ketone,72.10692,535.5,0.324,352.79,CCCNC
methyl ethyl sulfide,76.16252,533.0,0.209,339.8,CCC(C)NC
methyl fluoride,34.0332232,317.42,0.198,194.82,CNC(C)(C)C
methyl formate,60.05256,487.2,0.254,304.9,CC#C
methyl heptadecyl sulfide,286.56572,810.53,0.787,625.0,COCOC
methyl heptanoate,144.21384,602.0,0.395,447.15,CN
methyl heptyl sulfide,146.29692,660.72,0.465,461.7,Cc1ccccc1c2ccccc2
methyl hexadecyl sulfide,272.53884,798.63,0.774,611.0,CC1CCC1
methyl hexanoate,130.18696,587.95,0.407,422.65,CC1CCCCC1
methyl hexyl sulfide,132.27004,638.37,0.42,440.0,CC1(O)CCCCC1
methyl iodide,141.93929,528.0,0.197,315.58,CC1=CC=CC1
methyl isobutanoate,102.1332,540.7,0.364,365.45,CC1C2C3CC(C=C3)C2C=C1C
methyl isobutyl ether,88.14968,497.0,0.31,331.7,CC1CCCC1
methyl isocyanate,57.05196,505.0,0.175,312.0,CC1CC1
methyl isocyanide,41.05256,517.86,0.294,332.16,CCCCCCCCCCNC
methyl isopentanoate,116.16008,572.95,0.412,389.65,CCN(C)CC
methyl isopropenyl ketone,84.11792,566.0,0.286,371.15,CC(C)N(C)C(C)C
methyl isopropyl ether,74.1228,464.48,0.266,303.92,CCCCCCCCN(C)CCCCCCCC
methyl isopropyl ketone,86.1338,553.4,0.321,367.55,CCCN(C)CCC