name,molweight,critical temperature (K),acentric factor,boiling point (K),SMILES
trans-1-chloro-1-octadecene,286.9286,794.17,0.765,631.15,FC(Cl)(Cl)Cl
trans-1-chloro-1-octene,146.6598,640.48,0.43,450.15,Cl[Si](Cl)(Cl)c1ccccc1
trans-1-chloro-1-pentadecene,244.84796,757.95,0.7,587.15,[SiH3]C(Cl)=C(Cl)Cl
trans-1-chloro-1-pentene,104.57916,546.85,0.296,361.65,CCCCCCCCCCCCCCCCCCCCCCC
trans-1-chloro-1-propene,76.5254,492.86,0.208,310.55,CCCCCCCCCCCCCCCCCCCCCCCN
trans-1-chloro-1-tetradecene,230.82108,745.1,0.669,571.15,C1C2CC3CC1CC(C2)C3
trans-1-chloro-1-tridecene,216.7942,731.35,0.635,554.15,CCCCCCCCCCCCC
trans-1-chloro-1-undecene,188.74044,700.84,0.558,517.15,CCCCCCCCCCCCC#N
trans-1-chloro-2-methyl-1-butene,104.57916,553.1,0.271,363.15,CCCCCCCCCCCCC(O)=O
trans-1-chloro-3-methyl-1-butene,104.57916,558.56,0.267,366.15,CCCCCCCCCCCCCOC=O
trans-1-fluoro-1-butene,74.0979832,455.25,0.251,294.35,CCCCCCCCCCCCCN
trans-1-fluoro-1-decene,158.2592632,593.48,0.515,431.63,CCCCCCCCCCCCCc1ccccc1
trans-1-fluoro-1-dodecene,186.3130232,637.82,0.597,477.39,CCCCCCCCCCCCCC1CCCCC1
trans-1-fluoro-1-eicosene,298.5280632,820.75,0.776,660.43,CCCCCCCCCCCCCC1CCCC1
trans-1-fluoro-1-heptadecene,256.4474232,750.1,0.747,591.79,CC[Al](CC)CC
trans-1-fluoro-1-heptene,116.1786232,525.96,0.385,362.99,CCO[P](=O)(OCC)OCC
trans-1-fluoro-1-hexadecene,242.4205432,727.24,0.725,568.91,CCN(CC)CC
trans-1-fluoro-1-hexene,102.1517432,502.87,0.34,340.11,-
trans-1-fluoro-1-nonadecene,284.5011832,796.8,0.773,637.55,OCCOCCOCCO
trans-1-fluoro-1-nonene,144.2323832,571.18,0.473,408.75,COCCOCCOCCOC
trans-1-fluoro-1-octadecene,270.4743032,773.26,0.763,614.67,CCOCCOCCOCCO
trans-1-fluoro-1-octene,130.2055032,548.71,0.429,385.87,COCCOCCOCCO
trans-1-fluoro-1-pentadecene,228.3936632,704.64,0.699,546.03,NCCNCCNCCN
trans-1-fluoro-1-pentene,88.1248632,479.34,0.296,317.23,C1CN2CCN1CC2
trans-1-fluoro-1-propene,60.0711032,430.49,0.208,271.47,OC(=O)C(F)(F)F
trans-1-fluoro-1-tetradecene,214.3667832,682.24,0.668,523.15,FC=C(F)F
trans-1-fluoro-1-tridecene,200.3399032,659.99,0.634,500.27,FC(F)=C(F)OC(F)(F)F
trans-1-fluoro-1-undecene,172.2861432,615.67,0.557,454.51,[GeH3][GeH2][GeH3]
trans-1-fluoro-2-butene,74.0979832,455.25,0.251,294.35,CCCCCCCN(CCCCCCC)CCCCCCC
trans-1-fluoro-2-methyl-1-butene,88.1248632,482.63,0.271,317.11,CCCCCCN(CCCCCC)CCCCCC
trans-1-fluoro-3-methyl-1-butene,88.1248632,482.91,0.266,316.79,CC(C)CN(CC(C)C)CC(C)C
trans-1-iodo-1-butene,182.00405,623.09,0.242,400.65,CC(C)CCCCCN(CCCCCC(C)C)CCCCCC(C)C
trans-1-iodo-1-decene,266.16533,721.89,0.506,523.15,CC(C)CCN(CCC(C)C)CCC(C)C
trans-1-iodo-1-dodecene,294.21909,747.98,0.588,558.15,OC(=O)c1ccc2C(=O)OC(=O)c2c1
trans-1-iodo-1-eicosene,406.43413,832.59,0.777,669.15,CO[SiH](OC)OC
trans-1-iodo-1-heptadecene,364.35349,802.73,0.743,632.15,C[Al](C)C
trans-1-iodo-1-heptene,224.08469,677.01,0.375,465.15,Cc1cccc(C)c1C
trans-1-iodo-1-hexadecene,350.32661,791.82,0.72,618.15,CCCCCCCC(=O)C(C)(C)C
trans-1-iodo-1-hexene,210.05781,659.87,0.33,444.15,CO[P](=O)(OC)OC
trans-1-iodo-1-nonadecene,392.40725,822.45,0.772,657.15,C[SiH](C)C
trans-1-iodo-1-nonene,252.13845,708.62,0.463,505.15,CN(C)C
trans-1-iodo-1-octadecene,378.38037,812.93,0.76,645.15,C[Si](C)(C)Cl
trans-1-iodo-1-octene,238.11157,692.75,0.419,485.15,C[Ga](C)C
trans-1-iodo-1-pentadecene,336.29973,781.44,0.693,604.15,CCCCCCCCN(CCCCCCCC)CCCCCCCC
trans-1-iodo-1-pentene,196.03093,641.17,0.286,422.15,C1COOOC1
trans-1-iodo-1-propene,167.97717,582.79,0.198,365.34,CCCCCN(CCCCC)CCCCC
trans-1-iodo-1-tetradecene,322.27285,771.57,0.661,590.15,c1ccc(cc1)C=C(c2ccccc2)c3ccccc3
trans-1-iodo-1-tridecene,308.24597,759.56,0.626,574.15,c1ccc(cc1)C(c2ccccc2)c3ccccc3
trans-1-iodo-1-undecene,280.19221,735.45,0.548,541.15,c1ccc(cc1)P(c2ccccc2)c3ccccc3
trans-1-iodo-2-methyl-1-butene,196.03093,628.8,0.261,410.98,CCCN(CCC)CCC
trans-1-iodo-3-methyl-1-butene,196.03093,629.33,0.257,410.66,CCC(C)CN(CC(C)CC)CC(C)CC
trans-1-methyl-4-(1-propenyl)benzene,132.20528,695.19,0.365,474.15,[SiH3][SiH2][SiH3]
trans-1-methyl-4-isopropylcyclohexane,140.2688,667.0,0.274,443.75,[SiH3]N[SiH2]N[SiH3]
trans-1-propenylbenzene,118.1784,670.0,0.339,451.41,F[W](F)(F)F
"trans-2,2,4,6,6-pentamethyl-3-heptene",168.32256,656.77,0.548,453.7,CCCCCCCCCCC=O
"trans-2,3-dichloro-2-butene",124.99704,640.0,0.302,375.15,CCCCCCCCCCC
"trans-2,3-diphenyl-2-butene",208.30304,790.85,0.509,582.82,CCCCCCCCCCC#N
"trans-2,trans-4-hexadiene",82.1454,535.0,0.282,355.05,CCCCCCCCCCC(O)=O
trans-2-butene,56.10752,428.63,0.218,274.03,CCCCCCCCCCCO
trans-2-butenedinitrile,78.07336,657.0,0.557,459.15,CCCCCCCCCCCOC(C)=O
trans-2-butenoic acid,86.09044,666.0,0.571,458.15,CCCCCCCCCCCOC=O
trans-2-decene,140.2688,619.0,0.482,446.0,CCCCCCCCCCCOC(=O)CC
trans-2-dodecene,168.32256,663.0,0.569,491.0,CCCCCCCCCCCN
trans-2-eicosene,280.5376,745.0,0.822,592.0,CCCCCCCCCCCc1ccccc1
trans-2-fluoro-2-butene,74.0979832,467.83,0.227,300.15,CCCCCCCCCCCC1CCCCC1
trans-2-heptene,98.18816,543.0,0.337,371.1,CCCCCCCCCCCC1CCCC1
trans-2-hexene,84.16128,513.0,0.261,341.02,[F].[U]
trans-2-methyl-2-butenoic acid,100.11732,676.0,0.389,471.65,NC(N)=O
trans-2-methylcyclohexanol,114.18756,617.0,0.679,440.15,CCCCC#N
"trans-2-methylcyclohexanol, (±)",114.18756,635.0,0.685,440.65,Cl|[V](|Cl)(|Cl)=O
trans-2-methylcyclohexylamine,113.20284,622.0,0.386,423.15,[Cl-].[Cl-].[Cl-].[Cl-].[V+4]
trans-2-nonene,126.24192,593.62,0.411,417.65,COc1cc(C=O)ccc1O
trans-2-octene,112.21504,577.0,0.338,398.15,CC(C)C(=O)OC=C
trans-2-pentadecene,210.4032,702.0,0.695,537.0,CC(=O)OC=C
trans-2-pentene,70.1344,475.37,0.237,309.49,BrC=C
trans-2-pentenoic acid,100.11732,676.0,0.415,473.15,CCCC(=O)OC=C
trans-2-undecene,154.29568,637.84,0.504,465.65,ClC=C
"trans-3,5-dimethoxystilbene",240.30184,885.0,0.77,668.0,FC=C
trans-3-heptene,98.18816,540.0,0.334,368.82,C=COC=O
trans-3-hexene,84.16128,509.0,0.285,340.24,IC=C
trans-3-methylcyclohexanol,114.18756,627.0,0.681,447.15,CC(C)(C)C(=O)OC=C
trans-3-methylcyclohexylamine,113.20284,622.0,0.386,424.65,CCC(=O)OC=C
trans-3-nonene,126.24192,593.62,0.411,420.65,OC(=O)CC=C
trans-3-octene,112.21504,574.0,0.344,396.45,C=CCC#N
trans-3-penten-1-yne,66.10264,505.0,0.189,325.35,C=CC#C
trans-3-pentenoic acid,100.11732,676.0,0.415,466.15,C=CC1=CCCCC1
trans-4-methylcyclohexanol,114.18756,622.0,0.694,444.15,O
trans-4-methylcyclohexylamine,113.20284,622.0,0.386,425.15,CCc1ccccc1.Cc2ccc(C)cc2.Cc3cccc(C)c3.Cc4ccccc4C
trans-4-octene,112.21504,573.0,0.339,395.41,[Br-].[Br-].[Br-].[Br-].[Zr+4]
trans-4-undecene,154.29568,637.84,0.504,466.15,[Cl-].[Cl-].[Cl-].[Cl-].[Zr+4]
trans-5-decene,140.2688,616.98,0.457,444.15,[Zr+4].[I-].[I-].[I-].[I-]
trans-5-undecene,154.29568,637.84,0.504,465.15,CC(C)C(I)(I)I
trans-7-tetradecene,196.37632,699.45,0.622,523.15,CCCCCCC(I)(I)I
trans-cinnamic acid,148.16132,797.0,0.715,573.15,CCCCCC(I)(I)I
trans-crotonaldehyde,70.09104,569.0,0.338,375.37,CCCCC(I)(I)I
trans-crotonitrile,67.09044,586.0,0.398,394.38,CCCCCCCCCCCCC(I)(I)I
trans-decahydronaphthalene,138.25292,687.0,0.299,460.46,FC(F)C(F)(F)C(F)F
trans-dicyano-1-butene,106.12712,766.0,0.659,555.0,CCCCCCCCC(I)I
trans-stilbene,180.24928,820.0,0.487,579.65,CCCCCCCC(I)I
tributyl borate,230.15558,743.15,0.189,506.65,CCCCC(I)I
tributylamine,185.35312,644.0,0.694,487.15,CCC1CCCC1(C)C
trichloroacetaldehyde,147.38744,565.0,0.332,370.85,CCC(C)(C)OC(=O)CC(C)C
trichloroacetic acid,163.38684,688.0,0.554,470.78,CCC(C)(C)OC=O
trichloroacetyl chloride,181.8322,590.0,0.35,391.15,Br[Sb](Br)Br
trichlorobenzene,181.44792,726.09,0.374,486.4,I[Sb](I)I
trichloroethylene,131.38804,571.0,0.217,360.1,Br[As](Br)Br
trichloroethylsilane,163.5053,559.95,0.269,371.05,F[As](F)(F)(F)F
trichlorofluoromethane,137.3675032,471.2,0.189,296.97,I[As](I)I
trichlorophenylsilane,211.5493,688.0,0.396,474.95,N#CCc1ccccc1
trichlorovinylsilane,161.48942,543.15,0.282,363.85,ClCc1ccccc1
tricosane,324.63412,796.0,1.026,653.35,F[Bi](F)(F)(F)F
tricosylamine,339.6488,846.99,0.791,691.15,Br[Bi](Br)Br
"tricyclo[3.3.1.13,7]decane",136.23704,703.0,0.185,461.0,CCCCOC(=O)c1ccccc1
tridecane,184.36532,675.0,0.617,508.62,CCCCOC(=O)CCC
tridecanenitrile,195.34824,733.04,0.753,566.15,CCCCCCCCCCSCCCC
tridecanoic acid,214.34824,754.0,0.904,585.25,F[Cl](F)F
tridecyl formate,228.37512,725.4,0.945,577.24,ClCC=O
tridecylamine,199.38,721.7,0.706,553.15,OC(=O)CCl
tridecylbenzene,260.46308,790.0,0.78,614.43,ClCC(Cl)=O
tridecylcyclohexane,266.51072,783.38,0.7,614.66,Clc1ccccc1
tridecylcyclopentane,252.48384,766.47,0.697,598.56,FC(F)Cl
triethyl aluminum,114.166639,678.15,0.842,467.15,C[SiH](C)Cl
triethyl phosphate,182.156462,757.0,0.414,488.15,FC(F)(F)C(F)(F)Cl
triethylamine,101.19184,535.15,0.316,361.92,c1ccc2c(c1)ccc3c4ccccc4ccc23
triethylbenzene; (mixed isomers),162.27492,697.15,0.437,490.7,Cl\C=C/Cl
triethylene glycol,150.17476,769.5,0.759,561.5,C(COCCOCCO)O
triethylene glycol dimethyl ether,178.22852,651.0,0.792,489.15,F\C=C/F
triethylene glycol monoethyl ether,178.22852,679.0,1.059,529.15,C[C@@H]1CCCC[C@@H]1C
triethylene glycol monomethyl ether,164.20164,677.0,1.038,522.15,CCCCCCCCCCCC\C=C/Br
triethylene tetramine,146.23588,718.0,0.974,539.65,CCCCCCCCC\C=C/Br
triethylenediamine,112.17476,655.0,0.46,447.15,C1CCCC=CCC1
trifluoroacetic acid,114.0239496,491.25,0.524,344.95,C1C=CC=C1
trifluoroethene,82.0251496,347.22,0.238,221.01,C1CC1
trifluoromethyl trifluorovinyl ether,166.0228192,363.0,0.35,247.15,OC(=O)C1CC1
trigermane,225.89352,616.37,0.18,383.65,CCCCCCCCCCCCNCCCCCCCCCCCC
triheptylamine,311.59504,744.72,0.804,603.15,CCOC(=O)C=C
trihexylamine,269.5144,673.74,0.804,537.15,CCOC(=O)c1ccccc1
triisobutylamine,185.35312,672.77,0.675,464.65,CCCC(=O)OCC
triisooctylamine,353.67568,819.04,0.737,668.72,OC(=O)CCCCCC(O)=O
triisopentylamine,227.43376,711.57,0.754,508.15,CCCCCCCCCCCOC(=O)c1ccccc1C(=O)OCCCCCCC
trimellitic anhydride,192.12776,890.0,0.997,663.0,ClC(Cl)=C(Cl)C(Cl)=C(Cl)Cl
trimethoxysilane,122.1961,525.0,0.322,357.5,Fc1c(F)c(F)c(F)c(F)c1F
trimethyl aluminum,72.085999,620.0,0.218,400.27,C
trimethyl benzene,120.19428,643.63,0.346,445.0,C[S](Cl)(=O)=O
trimethyl nonanone,184.32196,687.46,0.691,488.15,C1N2CN3CN1CN(C2)C3
trimethyl phosphate,140.075822,729.0,0.489,470.35,COCC(O)=O
trimethyl silane,74.1979,432.0,0.175,279.85,CCC(O)OC
trimethylamine,59.1112,433.25,0.209,276.02,COC(C)C(C)C
trimethylchlorosilane,108.64266,497.75,0.27,330.75,COC(=O)C(C)(C)C
trimethylgallium,114.82746,510.0,0.208,328.95,COCC(C)(C)C
trioctylamine,353.67568,782.0,0.969,639.15,CCC(CC)C(=O)OC
trioxane,90.07884,604.0,0.334,387.65,COC(=O)C(C)=CC
tripentylamine,227.43376,660.0,0.853,516.15,CF
triphenylethylene,256.34704,908.0,0.6,669.0,COC=O
triphenylmethane,244.33604,865.0,0.574,632.15,CCCCCCSC
triphenylphosphine,262.290862,1008.0,0.452,650.15,CCc1ccccc1CC
tripropylamine,143.27248,577.5,0.699,429.65,[O-][N+](=O)c1ccccc1[N+]([O-])=O
tris(2-methylbutyl)amine,227.43376,711.57,0.754,505.15,Cc1ccccc1C(O)=O
trisilane,92.32002,525.15,0.07,326.05,CCCCCCCCCCCCCCCC1CCCCC1
trisilazane,107.3347,518.2,0.05,321.85,CCOCC(C)OC(C)=O
tungsten fluoride,297.8404192,444.0,0.163,290.25,COCC(C)O
undecanal,170.29508,692.0,0.62,506.15,CC1CN1
undecane,156.31156,639.0,0.53,469.08,c1cncnc1
undecanenitrile,167.29448,706.2,0.7,533.15,c1ccc2ncccc2c1
undecanoic acid,186.29448,732.0,0.835,557.35,OC(=O)c1ccccc1O
undecanol,172.31096,696.85,0.596,518.15,CCC(C)O
undecyl acetate,214.34824,707.6,0.849,520.0,CCC(C)OC(C)=O
undecyl formate,200.32136,700.0,0.675,531.48,CCC(C)OC(=O)C=C
undecyl propanoate,228.37512,720.9,0.982,577.94,CC(C)=C1CCC(=CC1)C
undecylamine,171.32624,682.0,0.707,514.75,CCC(C)(C)NC(C)(C)C
undecylbenzene,232.40932,764.0,0.738,586.4,CCC(C)(C)NC(C)(C)CC(C)(C)C
undecylcyclohexane,238.45696,761.74,0.646,586.26,CC(C)(C)O
undecylcyclopentane,224.43008,743.3,0.638,568.76,Clc1sc(Cl)c(Cl)c1Cl
uranium fluoride,352.0193192,505.8,0.318,329.65,CCCCCCCCCCCCCCCCCCCCCCCC
urea,60.05564,705.0,0.62,465.0,CCCCCCCCCCCCCCCCCCCCCCCCN
valeronitrile,83.1332,603.0,0.415,414.45,FC(F)=C(F)F
vanadium oxytrichloride,173.299,636.0,0.1305,400.0,FN(F)N(F)F
vanadium tetrachloride,192.7523,697.0,0.1858,425.0,OCC1CCCO1
vanillin,152.14972,777.0,0.757,558.0,COC1=C(C=CC(=C1)C=O)O
vinyl 2-methylpropanoate,114.1442,569.0,0.434,377.65,C1CCSC1
vinyl acetate,86.09044,519.13,0.351,345.65,[O-][N+](=O)C([N+]([O-])=O)([N+]([O-])=O)[N+]([O-])=O
vinyl bromide,106.94982,473.0,0.277,288.95,C1CCCCSCCCC1
vinyl butanoate,114.1442,569.0,0.434,389.85,C1CCCCCSCCCCC1
vinyl chloride,62.49852,432.0,0.1,259.25,C1CCCCCCCCSCCCCCCC1
vinyl fluoride,46.0442232,327.8,0.143,200.95,C1CCCSCC1
vinyl formate,72.06356,498.0,0.285,320.0,C1CCCCCCCSCCCCCCC1
vinyl iodide,153.95029,536.99,0.165,329.15,C1CCSCC1
vinyl pivalate,128.17108,556.0,0.391,383.35,C1CCCCCCCCCSCCCCCCCC1
vinyl propionate,100.11732,546.0,0.38,368.15,C1CCCCSCCC1
vinylacetic acid,86.09044,669.69,0.381,442.15,C1CCCCCCCCSCCCCCCCC1
vinylacetonitrile,67.09044,584.0,0.378,391.67,CC(O)=S
vinylacetylene,52.07576,454.0,0.118,278.25,C/C=C/C=C
vinylcyclohexene,108.18328,599.0,0.329,401.0,CC(C)/C=C/Cl
water,18.01528,647.13,0.3449,373.15,C/C=C/CF
xylenes,106.1674,620.21,0.317,413.15,-
zirconium bromide,410.84,805.0,0.31,633.15,-
zirconium chloride,233.0348,778.0,0.298,604.15,C\C(c1ccccc1)=C(\C)c2ccccc2
zirconium iodide,598.84188,960.0,0.343,704.15,[Zr+4].[I-].[I-].[I-].[I-]