name,molweight,critical temperature (K),acentric factor,boiling point (K),SMILES
peroxyacetic acid,76.05196,552.0,0.752,383.15,CCCCCCCCCCCCCSCCC
phenanthrene,178.2334,869.0,0.471,610.03,CCCCCCCCCCCSCCC
phenetole,122.1668,647.15,0.418,443.15,CCCOC=C
phenol,94.11304,694.25,0.426,454.99,CCCN
phenyl ethyl formate,150.1772,690.0,0.438,477.0,CCCc1ccccc1
phenyl glycidyl ether,150.1772,720.0,0.594,516.65,CCCC1CCCCC1
phenyl isocyanate,119.12284,653.0,0.412,439.43,CCCC1CCCC1
phenyl mercaptan,110.17964,689.0,0.263,442.29,CCCC1CC1
phenylbenzene (biphenyl),154.2114,773.0,0.403,528.15,CC=C
phenylhydrazine,108.143,761.0,0.535,516.65,CC1COC(=O)O1
phosgene,98.9158,455.0,0.201,280.71,C(=O)(Cl)Cl
phosphine,33.997582,324.75,0.0452,185.41,COCC(C)OC(C)=O
phosphonium iodide,161.909992,539.7,0.326,335.65,CCCNC(C)C
phosphorous (III) oxide,219.891448,714.86,0.218,446.15,c1cnccn1
phosphorus (III) chloride,137.331862,563.15,0.2344,349.25,c1cc2ccc3cccc4ccc(c1)c2c34
phosphorus (V) dichloride trifluoride,158.8743716,457.02,0.118,280.25,c1ccnnc1
phosphorus (V) sulfide,222.277524,1291.0,0.5936,787.15,c1ccncc1
phosphorus (red),30.973762,994.0,0.032,704.15,Oc1ccccc1O
phosphorus (white),30.973762,994.0,0.032,553.65,[nH]1cccc1
phosphorus oxychloride,153.331262,602.15,0.0832,378.65,C1CCNC1
phosphorus pentachloride,208.237262,646.15,0.531,433.0,CC(=O)C(O)=O
phosphorus thiochloride,169.397862,638.82,0.192,398.15,Oc1cccc(O)c1
phosphorus tribromide,270.685762,711.0,0.264,446.1,O=[Re](=O)(=O)O[Re](=O)(=O)=O
phthalan,120.15092,700.0,0.372,465.15,F[Ru](F)(F)(F)F
phthalic acid,166.13324,800.0,1.058,598.0,C1=CC=C(C(=C1)C(=O)O)C(=O)O
phthalic anhydride,148.11796,791.0,0.708,557.65,CC(C)CCCC(C)CCO
pimaric acid,302.457,807.1,0.792,623.1,CCSC(C)=O
piperazine,86.13688,638.0,0.414,419.15,Oc1ccccc1C=O
propane,44.09652,369.83,0.152,231.11,CCCC(=O)OC(C)CC
propanoic acid,74.07944,600.81,0.575,414.32,CCC(=O)O
propargyl alcohol,56.06416,580.0,0.555,386.75,CCC(C)OC=O
propargyl chloride,74.50952,541.0,0.152,331.0,CCC(C)[N+]#[C-]
propenyl cyclohexene,122.21016,636.0,0.342,431.65,CCC(C)S
propionaldehyde,58.08004,504.4,0.256,321.15,CCC(C)OC
propionic anhydride,130.1436,623.0,0.56,440.15,CCC(=O)OC(=O)CC
propionitrile,55.07944,564.4,0.325,370.5,CCCCC(=O)OC(C)CC
propyl 3-methylbutanoate,144.21384,599.25,0.472,429.05,CCC(C)OC(=O)CC
propyl acetate,102.1332,549.73,0.389,374.65,CCC(C)OC=C
propyl acrylate,114.1442,569.0,0.432,392.15,CCC(C)N
propyl alcohol,60.09592,536.78,0.622,370.35,CCC(C)c1ccccc1
propyl benzoate,164.20408,710.0,0.521,504.15,CCC(C)C1CCCCC1
propyl butanoate,130.18696,593.7,0.433,415.85,CCC(C)C1CCCC1
propyl butyl sulfide,132.27004,653.5,0.318,431.0,CCCCC(C)OC(C)=O
propyl decanoate,214.34824,682.0,0.759,542.21,CCCCCCCCCC(=O)OCCC
propyl decyl sulfide,216.43132,748.42,0.667,553.0,CCCC(C)c1ccccc1
propyl dodecyl sulfide,244.48508,775.15,0.729,583.0,O=[Se]=O
propyl formate,88.10632,538.0,0.318,353.97,F[Se](F)(F)(F)(F)F
propyl heptadecyl sulfide,314.61948,832.33,0.795,645.0,[SeH2].ClOCl
propyl heptanoate,172.2676,637.0,0.579,481.15,Cl[Se](Cl)(Cl)Cl
propyl heptyl sulfide,174.35068,701.03,0.551,500.0,CCCCCCCSCCC
propyl hexadecyl sulfide,300.5926,821.75,0.794,635.0,[SiH4]
propyl hexanoate,158.24072,629.0,0.596,460.15,CCCCCC(=O)OCCC
propyl hexyl sulfide,160.3238,681.56,0.508,480.0,-
propyl isobutanoate,130.18696,579.4,0.484,408.65,CCCOC(=O)C(C)C
propyl isocyanate,85.10572,547.0,0.335,356.65,CCCN=C=O
propyl isocyanide,69.10632,554.09,0.383,372.15,CCC[N+]#[C-]
propyl isopropyl ether,102.17656,518.96,0.359,353.15,CCCOC(C)C
propyl mercaptan,76.16252,536.6,0.232,340.87,CCCS
propyl methacrylate,128.17108,599.0,0.397,414.0,CCCOC(=O)C(=C)C
propyl nonyl sulfide,202.40444,733.68,0.631,537.0,-
propyl octanoate,186.29448,652.0,0.639,499.55,CCCCCCCC(=O)OCCC
propyl octyl sulfide,188.37756,717.91,0.592,520.0,-
propyl pentadecyl sulfide,286.56572,810.53,0.787,625.0,-
propyl pentanoate,144.21384,602.0,0.395,440.65,CCCCC(=O)OCCC
propyl pentyl sulfide,146.29692,660.72,0.465,460.0,Cl[Si](Cl)Cl
propyl phenyl sulfide,152.26028,720.19,0.417,493.15,CCCSC1=CC=CC=C1
propyl propanoate,116.16008,568.6,0.449,395.65,CCCOC(=O)CC
propyl tetradecyl sulfide,272.53884,798.63,0.774,611.0,Cl[Si](Cl)(Cl)Cl
propyl tridecyl sulfide,258.51196,787.27,0.754,597.0,[F-].[F-].[F-].[F-].[Si+4]
propyl undecyl sulfide,230.4582,762.23,0.7,569.0,C1CC12CC2
propyl vinyl ether,86.1338,505.58,0.323,338.15,[SnH4]
propylamine,59.1112,496.95,0.28,321.0,CCCN
propylbenzene,120.19428,638.35,0.344,432.39,CCCC1=CC=CC=C1
propylcyclohexane,126.24192,639.15,0.26,429.9,CCCC1CCCCC1
propylcyclopentane,112.21504,596.0,0.327,404.11,[SbH3]
propylcyclopropane,84.16128,520.15,0.286,342.3,CCCC1CC1
propylene,42.08064,364.9,0.141,225.46,c1ccc(cc1)C=Cc2ccccc2
propylene carbonate,102.08984,778.0,0.442,514.85,C=Cc1ccccc1
propylene glycol 2-tert-butyl ether,132.20284,578.0,0.775,425.15,OC(=O)CCC(O)=O
propylene glycol ethyl ether acetate,146.18636,613.0,0.543,438.0,O=C1CCC(=O)O1
propylene glycol monomethyl ether,90.1222,553.0,0.722,393.25,O=C1CCC(=O)N1
propylene glycol monomethyl ether acetate,132.15948,597.9,0.481,418.95,N#CCCC#N
propyleneimine,57.09532,529.0,0.257,334.0,OC[C@H]1O[C@H](O[C@]2(CO)O[C@H](CO)[C@@H](O)[C@@H]2O)[C@H](O)[C@@H](O)[C@@H]1O
propylisopropylamine,101.19184,538.56,0.432,371.45,O=[S]1(=O)CCCC1
pyrazine,80.08924,626.0,0.203,389.15,S
pyrene,202.2554,936.0,0.507,667.95,ClSCl
pyridazine,80.08924,774.0,0.204,481.15,O=[S]=O
pyridine,79.10144,619.95,0.239,388.41,F[S](F)(F)(F)(F)F
pyrimidine,80.08924,638.0,0.211,396.9,[S]Cl
pyrocatechol,110.11244,764.0,0.701,518.65,F[S](F)(F)F
pyrrole,67.09044,639.75,0.288,403.0,O=[S](=O)=O
pyrrolidine,71.1222,568.55,0.267,359.72,O[S](O)(=O)=O
pyruvic acid,88.06296,634.52,0.671,438.15,Cl[S](Cl)(=O)=O
quinoline,129.16132,782.15,0.347,510.31,CC(C)(C)OO
resorcinol,110.11244,810.0,0.677,549.65,F[Te](F)(F)(F)(F)F
rhenium heptoxide,484.4098,942.0,0.313,633.15,Cl[Te](Cl)(Cl)Cl
ruthenium (V) fluoride,196.062016,977.44,0.296,500.15,CC(C)C(=O)OC(C)(C)C
s(+)-2-amino-1-propanol,75.1106,631.0,0.737,447.65,CC(=O)OC(C)(C)C
"s-3,7-dimethyl-1-octanol",158.28408,629.0,0.793,485.0,CC(C)(C)OC(=O)C=C
s-ethyl thioacetate,104.17292,590.55,0.31,388.0,CCCC(=O)OC(C)(C)C
salicylaldehyde,122.12344,680.0,0.619,469.65,CC(C)(C)OC=O
salicylic acid,138.12284,739.0,0.832,529.0,CC(C)COC(C)(C)C
sec-butanol,74.1228,536.05,0.572,372.7,CC(C)(C)[N+]#[C-]
sec-butyl acetate,116.16008,561.0,0.395,385.15,CC(C)(C)S
sec-butyl acrylate,128.17108,580.0,0.442,404.15,CCC(=O)OC(C)(C)C
sec-butyl butanoate,144.21384,596.0,0.5,425.15,CC(C)(C)OC=C
"sec-butyl butanoate, (S)",144.21384,599.25,0.472,425.15,CC(C)(C)CC(O)=O
sec-butyl formate,102.1332,546.0,0.349,366.55,CC(C)(C)N
sec-butyl isocyanide,83.1332,565.89,0.397,385.0,CC(C)(C)c1ccccc1
sec-butyl mercaptan,90.1894,554.0,0.251,358.13,CC(C)(C)C1CCCCC1
sec-butyl methyl ether,88.14968,497.32,0.327,332.25,CC(C)(C)C1CCCC1
sec-butyl methyl ether (d),88.14968,497.32,0.327,333.85,CCCCCCCCCC(O)=O
sec-butyl pentanoate,158.24072,629.0,0.596,447.65,CC(C)C(C)(C)C(C)(C)C(C)(C)S
sec-butyl propanoate,130.18696,579.0,0.602,406.15,CCCC(C)(C)O
sec-butyl vinyl ether,100.16068,536.0,0.38,354.15,-
sec-butylamine,73.13808,514.3,0.282,336.15,CC(C)(C)CC(C)(C)S
sec-butylbenzene,134.22116,664.54,0.279,446.48,CC(C)(C)CC(C)(C)N
sec-butylcyclohexane,140.2688,667.0,0.274,452.45,CC(C)(C)CC(C)(C)c1ccccc1O
sec-butylcyclopentane,126.24192,626.59,0.33,427.5,CCC(C)(C)OC(C)=O
sec-hexyl acetate,144.21384,618.0,0.54,420.65,CCC(C)(C)O
sec-pentyl acetate (R),130.18696,583.38,0.443,415.15,-
sec-pentylbenzene,148.24804,678.03,0.42,473.15,ClC(Cl)=C(Cl)Cl
selenium dioxide,110.9588,961.16,0.291,588.15,C[Si](C)(C)O[Si](C)(C)O[Si](C)(C)O[Si](C)(C)O[Si](C)(C)O[Si](C)(C)C
selenium hexafluoride,192.9504192,345.5,0.133,227.35,CCCCCCCCCCCCCC=O
selenium oxychloride,165.8648,730.0,0.34,450.15,CCCCCCCCCCCCCC
selenium tetrachloride,220.7708,743.95,0.269,464.55,CCCCCCCCCCCCCC#N
"selenosulfide, carbon",123.037,576.53,0.316,358.75,CCCCCCCCCCCCCC(O)=O
silane,32.11726,269.7,0.0938,161.0,[SiH4]
"silane, bromodichlorofluoro",197.8933032,497.17,0.106,308.55,CCCCCCCCCCCCCCN
"silane, chlorotrifluoro",120.5334096,307.7,0.053,203.15,CCCCCCCCCCCCCCC1CCCCC1
"silane, dibromo",189.90938,550.0,0.227,339.15,CCCCCCCCCCCCCCC1CCCC1
"silane, dibromochlorofluoro",242.3446032,535.27,0.118,332.65,CC[Pb](CC)(CC)CC
"silane, dichloro",101.00678,459.0,0.0985,281.45,OCCOCCOCCOCCO
"silane, dichlorodifluoro",136.9877064,369.0,0.072,241.15,COCCOCCOCCOCCOC
"silane, difluoro",68.0981864,318.21,0.139,195.35,CC[Si](CC)(CC)CC
"silane, diiodo",283.91032,660.0,0.389,423.15,[Si](I)I
"silane, iodo",158.01379,515.0,0.276,318.55,C1CCOC1
"silane, monobromo",111.01332,454.0,0.155,275.55,C[Si](C)(C)O[Si](O[Si](C)(C)C)(O[Si](C)(C)C)O[Si](C)(C)C
"silane, monochloro",66.56202,396.65,0.136,242.75,C[Si](C)(C)C
"silane, monofluoro",50.1077232,286.28,0.125,175.15,[O-][N+](=O)C([N+]([O-])=O)([N+]([O-])=O)[N+]([O-])=O
"silane, tribromo",268.80544,610.0,0.222,382.15,c1ccc(cc1)C(c2ccccc2)=C(c3ccccc3)c4ccccc4
"silane, trichloro",135.45154,479.0,0.203,305.0,c1ccc(cc1)C(c2ccccc2)(c3ccccc3)c4ccccc4
"silane, trichlorofluoro",153.4420032,438.6,0.093,285.4,[SiH3][SiH2][SiH2][SiH3]
"silane, trifluoro",86.0886496,291.02,0.079,178.15,C1CSC1
silicon tetrachloride,169.8963,507.0,0.2318,330.0,C1CCCCCCCCCSCCCCCCCCC1
silicon tetrafluoride,104.0791128,259.0,0.3858,187.15,C1CCCCCCCCCCSCCCCCCCCC1
spiropentane,68.11852,499.74,0.221,312.19,C1CCCSCCC1
stannane,122.74176,358.52,0.184,221.35,C1CCCCCCCSCCCCCC1
stannic bromide,438.326,744.0,0.165,478.15,C1CCCCCCSCCCCCC1
stannic chloride,260.5208,591.9,0.14,387.3,C1CCCCCCSCCCCC1
stannic iodide,626.32788,968.0,0.306,637.5,C1CCCCCSCCCC1
stibine,124.78082,440.35,0.097,255.15,OC(=O)CS
"stigmast-5-en-3-ol, (3beta)",414.7154,953.0,1.054,778.0,Br[S](Br)=O
stilbene,180.24928,788.5,0.481,579.65,Cl[S](Cl)=O
styrene,104.15152,636.0,0.297,418.31,Cl[S](Cl)=O
succinic acid,118.08924,806.0,0.992,591.0,F[S](F)=O
succinic anhydride,100.07396,811.0,0.53,536.58,s1cccc1
succinimide,99.08924,858.0,0.483,568.6,C1CC(=O)NC1=O
succinonitrile,80.08924,770.0,0.559,540.15,[Cl-].[Cl-].[Cl-].[Cl-].[Ti+4]
sucrose,342.30008,1086.0,0.365,751.0,Cc1ccccc1
sulfolane,120.17232,853.0,0.382,560.45,Cc1ccccc1.[N-]=C=O.[N-]=C=O
sulfur,32.066,1314.0,0.2463,717.82,Cc1c(cccc1N=C=O)N=C=O
sulfur dichloride,102.9714,542.0,0.2561,332.75,CC/C=C/c1ccccc1
sulfur dioxide,64.0648,430.75,0.2453,263.13,O=S=O
sulfur hexafluoride,146.0564192,318.69,0.2151,209.25,C[C@H]1C[C@H](C)CC(C)(C)C1
sulfur monochloride,135.0374,659.37,0.272,410.15,Cl\C=C\Cl
sulfur tetrafluoride,108.0596128,364.0,0.307,232.7,FS(F)(F)F
sulfur trioxide,80.0642,490.85,0.424,317.9,F\C=C\F
sulfuric acid,98.07948,924.0,0.494,610.0,C[C@@H]1CCCC[C@H]1C
sulfuryl chloride,134.9702,545.0,0.1764,342.55,C[C@@H]1CCC[C@H]1C
t-butyl hydroperoxide,90.1222,576.0,0.668,405.5,ClC/C=C/Cl
tellurium hexafluoride,241.5904192,356.0,0.057,234.25,C[C@H]1CCC[C@H](C)C1
tellurium tetrachloride,269.4108,1002.0,0.326,660.15,C[C@H]1CC[C@H](C)C1
terpinolene,136.23704,667.0,0.376,460.0,N#CC\C=C\CC#N
tert-amyl-tert-butylamine,143.27248,617.4,0.567,417.15,C[C@@H]1CC[C@@H](C)CC1
tert-amyl-tert-octylamine,199.38,694.76,0.685,473.15,CC/C=C/Br
tert-butanol,74.1228,506.21,0.612,355.57,CCCCCCCC/C=C/Br
tert-butyl 2-methylpropanoate,144.21384,600.85,0.633,399.85,CCCCCCCCCC/C=C/Br
tert-butyl acetate,116.16008,545.0,0.34,369.15,CCCCCCCCCCCCCCCCCC/C=C/Br
tert-butyl acrylate,128.17108,592.33,0.432,447.69,CCCCCCCCCCCCCCC/C=C/Br
tert-butyl butanoate,144.21384,574.0,0.481,409.15,CCCCC/C=C/Br
tert-butyl formate,102.1332,537.0,0.294,355.95,CCCCCCCCCCCCCC/C=C/Br
tert-butyl isobutyl ether,130.23032,563.33,0.415,439.93,CCCC/C=C/Br
tert-butyl isocyanide,83.1332,544.72,0.335,364.65,CCCCCCCCCCCCCCCCC/C=C/Br
tert-butyl mercaptan,90.1894,530.0,0.191,337.37,CCCCCCC/C=C/Br
tert-butyl propanoate,130.18696,557.0,0.788,414.55,CCCCCCCCCCCCCCCC/C=C/Br
tert-butyl vinyl ether,100.16068,536.0,0.38,348.15,CCCCCC/C=C/Br
tert-butylacetic acid,116.16008,661.0,0.652,463.15,CCCCCCCCCCCCC/C=C/Br
tert-butylamine,73.13808,483.9,0.275,317.55,CCC/C=C/Br
tert-butylbenzene,134.22116,660.0,0.267,442.3,C/C=C/Br
tert-butylcyclohexane,140.2688,667.0,0.274,444.65,CCCCCCCCCCCC/C=C/Br
tert-butylcyclopentane,126.24192,622.56,0.271,418.0,CCCCCCCCCCC/C=C/Br
tert-decanoic acid,172.2676,713.0,0.877,473.73,CCCCCCCCC/C=C/Br
tert-dodecylmercaptan,202.40444,691.0,0.61,515.65,-
tert-hexyl alcohol,102.17656,581.8,0.582,390.55,CC(C)/C=C/Br
"tert-nonyl mercaptan, isomers",160.3238,659.0,0.451,469.15,CC/C=C/c1ccccc1
tert-octyl mercaptan,146.29692,627.0,0.3,428.65,CC/C=C/Cl
tert-octylamine,129.2456,601.45,0.5,413.15,CCCCCCCC/C=C/Cl
tert-octylphenol,206.32808,765.0,0.631,554.65,CCCCCCCCCC/C=C/Cl
tert-pentyl acetate,130.18696,572.0,0.419,397.15,CCCCCCCCCCCCCCCCCC/C=C/Cl
tert-pentyl-alcohol,88.14968,543.7,0.479,375.15,CCCCCCCCCCCCCCC/C=C/Cl
tetraborane,53.3234,466.66,0.107,291.15,CCCCC/C=C/Cl
tetrachloroethylene,165.8328,620.0,0.214,394.4,CCCCCCCCCCCCCC/C=C/Cl
tetrachlorothiophene,221.9208,753.0,0.361,506.54,CCCC/C=C/Cl
tetracosane,338.661,804.0,1.071,664.45,CCCCCCCCCCCCCCCCC/C=C/Cl
tetracosylamine,353.67568,859.72,0.753,702.15,CCCCCCC/C=C/Cl
tetradecamethylhexasiloxane,458.99748,653.2,0.785,532.9,CCCCCCCCCCCCCCCC/C=C/Cl
tetradecanal,212.37572,717.32,0.784,556.15,CCCCCC/C=C/Cl
tetradecane,198.3922,693.0,0.643,526.73,CCCCCCCCCCCCC/C=C/Cl
tetradecanenitrile,209.37512,745.12,0.781,581.15,CCC/C=C/Cl
tetradecanoic acid,228.37512,765.0,0.936,599.35,C/C=C/Cl
tetradecanol; mixed isomers,214.3916,736.2,0.686,562.15,CCCCCCCCCCCC/C=C/Cl
tetradecylamine,213.40688,722.0,0.861,564.45,CCCCCCCCCCC/C=C/Cl
tetradecylcyclohexane,280.5376,792.82,0.719,627.16,CCCCCCCCC/C=C/Cl
tetradecylcyclopentane,266.51072,772.0,0.789,612.16,CCCCCCCCCCCCCCC1CCCC1
tetraethyl lead,323.4468,655.0,0.478,473.15,CC/C=C/F
tetraethylene glycol,194.22792,795.0,0.917,602.7,CCCCCCCC/C=C/F
tetraethylene glycol dimethyl ether,222.28168,705.0,0.965,548.95,CCCCCCCCCC/C=C/F
tetraethylsilane,144.3323,606.0,0.4,426.56,CCCCCCCCCCCCCCCCCC/C=C/F
tetrafluorodimethyl ether,118.0308928,420.25,0.368,279.5,CCCCCCCCCCCCCCC/C=C/F
tetrafluoroethylene,100.0156128,306.45,0.227,197.51,CCCCC/C=C/F
tetrafluorohydrazine,104.0070928,309.35,0.2233,198.95,CCCCCCCCCCCCCC/C=C/F
tetrahydrofuran,72.10692,540.15,0.226,338.0,CCCC/C=C/F
tetrahydrofurfuryl alcohol,102.1332,639.0,0.704,450.8,CCCCCCCCCCCCCCCCC/C=C/F
tetrahydroneral,156.2682,656.59,0.612,403.15,CCCCCCC/C=C/F
tetrahydrothiophene,88.17352,631.95,0.2,394.27,CCCCCCCCCCCCCCCC/C=C/F
tetrakis(trimethylsilyloxy)silane,384.84294,645.8,0.746,518.15,CCCCCC/C=C/F
tetramethylsilane,88.22478,450.4,0.224,299.8,CCCCCCCCCCCCC/C=C/F
tetranitromethane,196.03316,540.0,0.7051,398.85,CCC/C=C/F
tetranitromethane,196.03316,540.0,0.705,398.85,C/C=C/F
tetraphenylethylene,332.4448,996.0,0.729,760.0,CCCCCCCCCCCC/C=C/F
tetraphenylmethane,320.4338,983.0,0.679,743.0,CCCCCCCCCCC/C=C/F
tetrasilane,122.4214,599.3,0.037,380.55,CCCCCCCCC/C=C/F
thiacyclobutane,74.14664,602.0,0.173,368.12,CC(C)/C=C/F
thiacyclodecane,158.30792,771.03,0.284,512.15,CC/C=C/I
thiacyclododecane,186.36168,796.44,0.314,541.15,CCCCCCCC/C=C/I
thiacycloeicosane,298.57672,865.9,0.428,634.15,CCCCCCCCCC/C=C/I
thiacycloheneicosane,312.6036,872.75,0.44,644.15,CCCCCCCCCCCCCCCCCC/C=C/I
thiacycloheptadecane,256.49608,844.72,0.387,603.15,CCCCCCCCCCCCCCC/C=C/I
thiacycloheptane,116.22728,640.07,0.291,446.7,CCCCC/C=C/I
thiacyclohexadecane,242.4692,836.95,0.373,592.15,CCCCCCCCCCCCCC/C=C/I
thiacyclohexane,102.2004,657.12,0.22,414.9,CCCC/C=C/I
thiacyclononadecane,284.54984,859.18,0.415,624.15,CCCCCCCCCCCCCCCCC/C=C/I
thiacyclononane,144.28104,751.38,0.27,493.15,CCCCCCC/C=C/I
thiacyclooctadecane,270.52296,852.59,0.401,614.15,CCCCCCCCCCCCCCCC/C=C/I
thiacyclooctane,130.25416,726.84,0.255,471.15,CCCCCC/C=C/I
thiacyclopentadecane,228.44232,827.84,0.359,580.15,CCCCCCCCCCCCC/C=C/I
thiacyclotetradecane,214.41544,818.79,0.344,568.15,CCC/C=C/I
thiacyclotridecane,200.38856,808.34,0.329,555.15,C/C=C/I
thiacycloundecane,172.3348,784.51,0.299,527.15,CCCCCCCCCCCC/C=C/I
thioacetic-acid,76.11916,577.34,0.304,360.16,CCCCCCCCCCC/C=C/I
thioglycolic acid,92.11856,733.0,0.56,493.0,CCCCCCCCC/C=C/I
thionyl bromide,207.8734,661.75,0.283,413.15,O=S(Br)Br
thionyl chloride,118.9708,567.0,0.0946,348.75,CC(C)/C=C/I
thionyl chloride,118.9708,567.0,0.231,348.75,C/C=C/c1ccc(C)cc1
thionyl fluoride,86.0622064,371.25,0.218,229.35,C[C@@H]1CC[C@H](CC1)C(C)C
thiophene,84.14176,579.35,0.197,357.31,C/C=C/c1ccccc1
"threo-4,4-dimethyl-2,3-pentanediol",132.20284,710.3,1.107,539.81,-
titanium tetrachloride,189.6908,638.0,0.2837,409.0,C\C=C\C
toluene,92.14052,591.75,0.264,383.78,N#C/C=C/C#N
toluene diisocyanate,174.15892,725.0,0.658,524.15,C/C=C/C(O)=O
"toluene-2,6-diisocyanate",174.15892,749.0,0.434,522.0,CCCCCCC/C=C/C
trans-(1-butenyl)benzene,132.20528,692.76,0.366,471.83,CCCCCCCCC/C=C/C
trans-(1-methyl-1-propenyl)benzene,132.20528,685.0,0.356,467.85,CCCCCCCCCCCCCCCCC/C=C/C
"trans-1,1,3,5-tetramethylcyclohexane",140.2688,667.0,0.274,429.55,C[C@H]1C[C@@H](CC(C1)(C)C)C
"trans-1,2-dichloroethylene",96.94328,516.5,0.223,320.85,CCCC/C=C/C
"trans-1,2-dichloropropene",110.97016,577.0,0.206,350.15,CCC/C=C/C
"trans-1,2-difluoroethene",64.0346864,394.67,0.21,245.15,C\C=C(/C)C(O)=O
"trans-1,2-dimethylcyclohexane",112.21504,596.15,0.238,396.58,C[C@@H]1CCCC[C@H]1O
"trans-1,2-dimethylcyclopentane",98.18816,553.15,0.27,365.02,C[C@@H]1CCC[C@H]1C
"trans-1,3-dichloropropene",110.97016,577.0,0.206,385.15,C[C@@H]1CCCC[C@H]1N
"trans-1,3-dimethylcyclohexane",112.21504,598.0,0.234,397.61,CCCCCC/C=C/C
"trans-1,3-dimethylcyclopentane",98.18816,553.0,0.27,364.88,CCCCC/C=C/C
"trans-1,3-pentadiene",68.11852,500.0,0.116,315.17,CCCCCCCCCCCC/C=C/C
"trans-1,4-dicyano-2-butene",106.12712,755.0,0.667,547.0,CC/C=C/C
"trans-1,4-dimethylcyclohexane",112.21504,587.7,0.255,392.51,CC/C=C/C(O)=O
trans-1-bromo-1-butene,135.00358,567.34,0.312,367.85,CCCCCCCC/C=C/C
trans-1-bromo-1-decene,219.16486,683.71,0.579,498.15,COc1cc(OC)cc(\C=C\c2ccccc2)c1
trans-1-bromo-1-dodecene,247.21862,712.56,0.661,534.15,CCC/C=C/CC
trans-1-bromo-1-eicosene,359.43366,805.01,0.839,648.15,CC\C=C\CC
trans-1-bromo-1-heptadecene,317.35302,772.65,0.812,610.15,C[C@H]1CCC[C@H](O)C1
trans-1-bromo-1-heptene,177.08422,630.55,0.447,436.15,C[C@H]1CCC[C@H](N)C1
trans-1-bromo-1-hexadecene,303.32614,761.27,0.79,596.15,CCCCC/C=C/CC
trans-1-bromo-1-hexene,163.05734,609.39,0.402,413.15,CCCC/C=C/CC
trans-1-bromo-1-nonadecene,345.40678,794.49,0.836,636.15,C/C=C/C#C
trans-1-bromo-1-nonene,205.13798,666.86,0.536,478.15,C/C=C/CC(O)=O
trans-1-bromo-1-octadecene,331.3799,783.3,0.827,623.15,C[C@@H]1CC[C@@H](O)CC1
trans-1-bromo-1-octene,191.1111,643.03,0.492,453.15,C[C@@H]1CC[C@@H](N)CC1
trans-1-bromo-1-pentadecene,289.29926,750.39,0.764,582.15,CCC\C=C\CCC
trans-1-bromo-1-pentene,149.03046,584.97,0.357,388.15,CCCCCC/C=C/CCC
trans-1-bromo-1-propene,120.9767,531.77,0.268,336.35,CCCC\C=C\CCCC
trans-1-bromo-1-tetradecene,275.27238,738.68,0.733,567.15,CCCCC/C=C/CCCC
trans-1-bromo-1-tridecene,261.2455,726.09,0.699,551.15,CCCCCC\C=C\CCCCCC
trans-1-bromo-1-undecene,233.19174,699.36,0.621,517.15,OC(=O)\C=C\c1ccccc1
trans-1-bromo-2-methyl-1-butene,149.03046,592.21,0.331,390.15,C/C=C/C=O
trans-1-bromo-3-methyl-1-butene,149.03046,582.5,0.326,383.15,-
trans-1-butenylbenzene,132.20528,682.45,0.356,463.05,C1CC[C@@H]2CCCC[C@H]2C1
trans-1-chloro-1-butene,90.55228,528.19,0.252,341.25,CC/C=C/Cl
trans-1-chloro-1-decene,174.71356,682.53,0.516,496.15,c1ccc(cc1)\C=C\c2ccccc2
trans-1-chloro-1-dodecene,202.76732,716.62,0.598,536.15,CCCCOB(OCCCC)OCCCC
trans-1-chloro-1-eicosene,314.98236,815.57,0.779,656.15,CCCCN(CCCC)CCCC
trans-1-chloro-1-heptadecene,272.90172,782.44,0.749,617.15,ClC(Cl)(Cl)C=O
trans-1-chloro-1-heptene,132.63292,613.52,0.385,423.15,OC(=O)C(Cl)(Cl)Cl
trans-1-chloro-1-hexadecene,258.87484,771.23,0.727,603.15,ClC(=O)C(Cl)(Cl)Cl
trans-1-chloro-1-hexene,118.60604,583.61,0.341,394.45,Clc1cccc(Cl)c1Cl
trans-1-chloro-1-nonadecene,300.95548,805.2,0.775,644.15,ClC=C(Cl)Cl
trans-1-chloro-1-nonene,160.68668,662.93,0.474,474.15,[SiH3]CC(Cl)(Cl)Cl