name,molweight,critical temperature (K),acentric factor,boiling point (K),SMILES
"1,5-dicyclohexylpentane",236.44108,776.31,0.551,598.15,BrCCCCCCBr
"1,5-difluoropentane",108.1312064,554.4,0.381,378.65,ClCCCCCCCl
"1,5-diiodopentane",323.94334,739.07,0.362,500.08,CCc1ccc2c(CC)cccc2c1
"1,5-diisocyanatonaphthalene",210.19192,818.0,0.73,603.0,ICCCCCCI
"1,5-dimethyl-4-isopropylcyclopentene",138.25292,647.47,0.403,436.15,CC(C)c1ccc(C)c2ccc(C)cc12
"1,5-dimethylcyclohexene",110.19916,606.0,0.26,401.15,CC1CCCC=C1C
"1,5-dimethylcyclopentene",96.17228,573.63,0.245,375.15,Cc1ccc2c(C)cccc2c1
"1,5-dimethylnaphthalene",156.22728,773.47,0.443,538.16,BrCCCCCCCBr
"1,5-diphenylpentane",224.3458,786.4,0.587,600.15,ClCCCCCCCCl
"1,5-hexadiene",82.1454,507.0,0.232,332.61,CCc1ccc2cccc(CC)c2c1
"1,5-pentanediamine",102.17964,637.67,0.591,452.15,Cc1ccc2cccc(C)c2c1
"1,6,7-trimethylnaphthalene",170.25416,779.72,0.492,553.15,BrCCCCCCCCBr
"1,6-dibromohexane",243.96928,684.21,0.526,518.65,ClCCCCCCCCCl
"1,6-dichlorohexane",155.06668,633.09,0.397,477.15,ICCCCCCCCI
"1,6-diethylnaphthalene",184.28104,812.35,0.537,585.41,Cc1cccc2cccc(C)c12
"1,6-diiodohexane",337.97022,762.6,0.376,522.52,BrCCCCCCCCCBr
"1,6-dimethyl-4-isopropylnaphthalene",198.30792,795.4,0.575,567.15,ClCCCCCCCCCCl
"1,6-dimethylcyclohexene",110.19916,610.68,0.26,404.25,CC1CCCC=C1C
"1,6-dimethylnaphthalene",156.22728,770.6,0.443,536.16,CC1=CC2=CC=CC(=C2C=C1)C
"1,7-dibromoheptane",257.99616,700.05,0.571,536.15,C(CCCBr)CCCBr
"1,7-dichloroheptane",169.09356,654.02,0.442,454.15,C(CCCCl)CCCCl
"1,7-diethylnaphthalene",184.28104,812.35,0.537,585.41,CCC1=CC2=C(C=CC=C2CC)C=C1
"1,7-dimethylnaphthalene",156.22728,770.6,0.443,536.16,CC1=CC2=C(C=CC=C2C=C1)C
"1,8-dibromooctane",272.02304,716.02,0.616,544.15,C(CCCCBr)CCCBr
"1,8-dichlorooctane",183.12044,672.06,0.485,514.15,C(CCCCCl)CCCCl
"1,8-diiodooctane",366.02398,799.06,0.465,568.28,C(CCCCI)CCCI
"1,8-dimethylnaphthalene",156.22728,792.0,0.395,543.15,C[C@H]1CCC[C@H](C)[C@H]1C
"1,9-dibromononane",286.04992,729.44,0.659,558.15,C(CCCCBr)CCCCBr
"1,9-dichlorononane",197.14732,688.79,0.528,533.15,C(CCCCCl)CCCCCl
"1,cis-2,cis-3,cis-4-tetramethylcyclopentane",126.24192,613.22,0.284,418.15,C[C@@H]1CC[C@@H](C)[C@@H](C)C1
"1,cis-2,cis-3,trans-4-tetramethylcyclopentane",126.24192,602.95,0.284,411.15,CC1C[C@H](C)[C@H](C)C1
"1,cis-2,cis-3-trimethylcyclohexane",126.24192,629.26,0.28,426.15,CC1CCCC(C1C)C
"1,cis-2,cis-3-trimethylcyclopentane",112.21504,591.57,0.265,396.15,CC1CCC(C1C)C
"1,cis-2,cis-3-trimethylcyclopropane",84.16128,520.06,0.234,339.15,-
"1,cis-2,cis-4-trimethylcyclohexane",126.24192,621.87,0.28,421.15,-
"1,cis-2,cis-4-trimethylcyclopentane",112.21504,582.61,0.265,390.15,-
"1,cis-2,trans-3,cis-4-tetramethylcyclopentane",126.24192,592.68,0.284,404.15,-
"1,cis-2,trans-3,trans-4-tetramethylcyclopentane",126.24192,602.95,0.284,411.15,-
"1,cis-2,trans-3-trimethylcyclohexane",126.24192,626.3,0.28,424.15,C[C@@H]1C[C@@H]1C
"1,cis-2,trans-3-trimethylcyclopentane",112.21504,583.36,0.265,390.65,-
"1,cis-2,trans-3-trimethylcyclopropane",84.16128,510.4,0.234,332.85,-
"1,cis-2,trans-4-trimethylcyclohexane",126.24192,621.87,0.28,421.15,C[C@@H]1CC[C@H]([C@H](C1)C)C
"1,cis-2,trans-4-trimethylcyclopentane",112.21504,582.21,0.265,389.88,C[C@@H]1CC(C[C@@H]1C)C
"1,cis-2-diethylcyclopentane",126.24192,622.31,0.334,426.71,-
"1,cis-2-dimethyl-1-ethylcyclopentane",126.24192,616.85,0.296,417.15,-
"1,cis-2-dimethyl-cis-3-ethylcyclopentane",126.24192,621.75,0.309,425.15,-
"1,cis-2-dimethyl-cis-4-ethylcyclopentane",126.24192,614.43,0.309,420.15,CC\C=C/C=C
"1,cis-2-dimethyl-trans-3-ethylcyclopentane",126.24192,611.51,0.309,418.15,-
"1,cis-2-dimethyl-trans-4-ethylcyclopentane",126.24192,614.43,0.309,420.15,-
"1,cis-2-dimethylcyclobutane",84.16128,525.83,0.231,341.15,-
"1,cis-2-dimethylcyclopropane",70.1344,485.69,0.215,310.18,C[C@@H]1C[C@@H]1C
"1,cis-3-diethylcyclopentane",126.24192,617.12,0.334,423.15,-
"1,cis-3-dimethyl-1-ethylcyclopentane",126.24192,605.02,0.296,409.15,-
"1,cis-3-dimethyl-cis-2-ethylcyclopentane",126.24192,621.75,0.309,425.15,-
"1,cis-3-dimethyl-cis-4-ethylcyclopentane",126.24192,611.51,0.309,418.15,-
"1,cis-3-dimethyl-trans-2-ethylcyclopentane",126.24192,599.81,0.309,410.15,-
"1,cis-3-dimethyl-trans-4-ethylcyclopentane",126.24192,599.81,0.309,410.15,-
"1,cis-3-dimethylcyclobutane",84.16128,514.27,0.231,333.65,-
"1,cis-3-hexadiene",82.1454,526.7,0.266,346.15,CC/C=C\C=C
"1,cis-4-hexadiene",82.1454,514.53,0.266,338.15,C/C=C\CC=C
"1,trans-2,cis-3,trans-4-tetramethylcyclopentane",126.24192,587.41,0.284,400.55,-
"1,trans-2,cis-3-trimethylcyclohexane",126.24192,615.97,0.28,417.15,C[C@@H]1CCC[C@@H](C1C)C
"1,trans-2,cis-3-trimethylcyclopentane",112.21504,572.46,0.265,383.35,C[C@H]1CC[C@@H](C1C)C
"1,trans-2,cis-4-trimethylcyclohexane",126.24192,617.44,0.28,418.15,C[C@@H]1CC[C@H]([C@@H](C1)C)C
"1,trans-2,cis-4-trimethylcyclopentane",112.21504,571.1,0.265,382.44,-
"1,trans-2,trans-3,cis-4-tetramethylcyclopentane",126.24192,592.68,0.284,404.15,-
"1,trans-2,trans-4-trimethylcyclohexane",126.24192,611.86,0.28,414.37,-
"1,trans-2-diethylcyclopentane",126.24192,613.51,0.334,420.68,-
"1,trans-2-dimethyl-1-ethylcyclopentane",126.24192,616.85,0.296,417.15,CC/C=C/C=C
"1,trans-2-dimethyl-cis-3-ethylcyclopentane",126.24192,601.27,0.309,411.15,-
"1,trans-2-dimethyl-cis-4-ethylcyclopentane",126.24192,604.2,0.309,413.15,CC(C)OCC(C)O
"1,trans-2-dimethyl-trans-3-ethylcyclopentane",126.24192,611.51,0.309,418.15,CCCCOC(C)C
"1,trans-2-dimethylcyclobutane",84.16128,513.5,0.231,333.15,CC(=O)c1ccccc1O
"1,trans-2-dimethylcyclopropane",70.1344,471.88,0.215,301.36,COc1cc(ccc1O)C(C)=O
"1,trans-3-diethylcyclopentane",126.24192,617.12,0.334,423.15,CC(=O)c1ccc(O)cc1
"1,trans-3-dimethyl-1-ethylcyclopentane",126.24192,605.02,0.296,409.15,CC(O)CN(C)C
"1,trans-3-dimethyl-cis-2-ethylcyclopentane",126.24192,610.05,0.309,417.15,CCC(C)(C)CN
"1,trans-3-dimethyl-cis-4-ethylcyclopentane",126.24192,678.78,0.309,412.0,CC(C)C(C)CN
"1,trans-3-dimethyl-trans-4-ethylcyclopentane",126.24192,611.51,0.309,418.15,CCC(O)CN
"1,trans-3-dimethylcyclobutane",84.16128,509.64,0.231,330.65,CCC(CC)CN
"1,trans-3-hexadiene",82.1454,526.7,0.266,346.15,CC(C)(O)CN
"1,trans-4-hexadiene",82.1454,514.53,0.266,338.15,CCCC(C)CN
1-(1-methylethoxy)-2-propanol,118.17596,562.0,0.768,411.15,CC(O)CN
1-(1-methylethoxy)butane,116.20344,549.0,0.403,382.3,CC(C)(C)CCN
1-(2-hydroxyphenyl)ethanone,136.15032,707.0,0.638,494.7,CCC(C)CCN
1-(4-hydroxy-3-methoxyphenyl)ethanone,166.1766,786.0,0.786,570.65,CC(C)CCCN
1-(4-hydroxyphenyl)ethanone,136.15032,860.0,0.641,601.65,CC(N)O
1-(dimethylamino)-2-propanol,103.16436,626.41,0.841,397.65,CCCC=CBr
"1-amino-2,2-dimethylbutane",101.19184,569.55,0.387,386.65,-
"1-amino-2,3-dimethylbutane",101.19184,552.72,0.419,378.15,CC(C)CCCCCCCCCCCBr
1-amino-2-butanol,89.13748,571.82,0.711,442.05,CCC(C)(C)CBr
1-amino-2-ethylbutane,101.19184,592.91,0.451,408.77,CC(C)C(C)CBr
1-amino-2-methyl-2-propanol,89.13748,571.82,0.711,424.05,CC=CCBr
1-amino-2-methylpentane,101.19184,580.19,0.451,400.0,CCCCCCCC=CCBr
1-amino-2-propanol,75.1106,614.0,0.787,432.61,CCC(CC)CBr
"1-amino-3,3-dimethylbutane",101.19184,598.02,0.387,405.98,CC(C)=CBr
1-amino-3-methylpentane,101.19184,580.19,0.451,395.15,CCC(C)CCN
1-amino-4-methylpentane,101.19184,575.91,0.451,397.05,-
1-aminoethanol,61.08372,638.0,0.797,444.15,CCC(C)CBr
1-bromo-1-pentene,149.03046,586.22,0.334,392.15,CCCC(C)CBr
1-bromo-1-propene; (cis+trans),120.9767,526.38,0.265,333.65,CC(C)CBr
1-bromo-12-methyltridecane,277.28826,750.56,0.758,580.15,CCC=CCBr
"1-bromo-2,2-dimethylbutane",165.07322,601.65,0.404,410.0,CC(C)(C)CCBr
"1-bromo-2,3-dimethylbutane",165.07322,616.11,0.341,413.15,CC(C)=CCBr
1-bromo-2-butene,135.00358,568.74,0.301,377.65,CC(C)CCBr
1-bromo-2-decene,219.16486,683.71,0.579,498.15,CCC(C)CCBr
1-bromo-2-ethylbutane,165.07322,626.3,0.311,416.45,CC(C)CCCBr
1-bromo-2-methyl-1-propene,135.00358,565.96,0.286,364.15,C\C=C/CBr
1-bromo-2-methyl-cis-2-butene,149.03046,602.84,0.331,397.15,CC\C=C/CBr
1-bromo-2-methyl-trans-2-butene,149.03046,602.84,0.331,397.15,C/C=C/CBr
1-bromo-2-methylbutane,151.04634,590.01,0.359,393.65,CC/C=C/CBr
1-bromo-2-methylpentane,165.07322,612.15,0.404,417.15,CCCCBr
1-bromo-2-methylpropane,137.01946,559.14,0.314,364.68,CCCCCCCCCCBr
1-bromo-2-pentene,149.03046,586.22,0.334,396.65,CCCCCCCCCCCCCCCCCCCCCCBr
"1-bromo-3,3-dimethylbutane",165.07322,606.7,0.373,410.15,CCCCCCCCCCCCBr
1-bromo-3-methyl-2-butene,149.03046,582.88,0.331,384.0,CCCCCCCCCCCCCCCCCCCCBr
1-bromo-3-methylbutane,151.04634,589.86,0.359,393.55,CCCCCCCCCCCCCCCCCCCCCBr
1-bromo-3-methylpentane,165.07322,618.02,0.404,421.15,CCCCCCCCCCCCCCCCCBr
1-bromo-4-methylpentane,165.07322,616.55,0.404,420.15,CCCCCCCBr
1-bromo-cis-2-butene,135.00358,581.68,0.312,377.15,CCCCCCCCCCCCCCCCBr
1-bromo-cis-2-pentene,149.03046,597.03,0.357,396.15,CCCCCCBr
1-bromo-trans-2-butene,135.00358,581.68,0.312,377.15,Brc1cccc2ccccc12
1-bromo-trans-2-pentene,149.03046,597.03,0.357,396.15,CCCCCCCCCCCCCCCCCCCBr
1-bromobutane,137.01946,577.0,0.323,374.75,CCCCCCCCCBr
1-bromodecane,221.18074,698.43,0.611,513.75,CCCCCCCCCCCCCCCCCCBr
1-bromodocosane,389.5033,837.39,0.814,681.15,CCCCCCCCBr
1-bromododecane,249.2345,726.55,0.69,549.05,CCCCCCCCCCCCCCCCCCCCCCCCCBr
1-bromoeicosane,361.44954,816.19,0.841,659.15,CCCCCCCCCCCCCCCBr
1-bromoheneicosane,375.47642,826.47,0.831,670.15,CCCCCBr
1-bromoheptadecane,319.3689,784.07,0.827,622.15,CCCBr
1-bromoheptane,179.1001,651.0,0.444,452.05,CCCCCCCCCCCCCCCCCCCCCCCCBr
1-bromohexadecane,305.34202,773.66,0.809,609.15,CCCCCCCCCCCCCCBr
1-bromohexane,165.07322,623.86,0.435,428.45,CCCCCCCCCCCCCCCCCCCCCCCBr
1-bromonaphthalene,207.06958,824.0,0.369,554.25,CCCCCCCCCCCCCBr
1-bromononadecane,347.42266,805.31,0.843,647.15,CCCCCCCCCCCBr
1-bromononane,207.15386,682.65,0.568,494.55,CCC=C
1-bromooctadecane,333.39578,795.03,0.838,635.15,CCCCC1CCCc2ccccc12
1-bromooctane,193.12698,665.09,0.524,473.95,CCCCC1=CCCC1
1-bromopentacosane,431.58394,869.43,0.714,710.15,CCCCc1cccc2ccccc12
1-bromopentadecane,291.31514,762.51,0.786,595.15,FC(F)C(F)(F)Cl
1-bromopentane,151.04634,564.76,0.384,402.74,FCC(F)(F)Cl
1-bromopropane,122.99258,544.0,0.285,344.15,CC(F)(F)Cl
1-bromotetracosane,417.55706,858.84,0.755,701.15,FC(F)C(F)Cl
1-bromotetradecane,277.28826,750.56,0.758,580.15,FCC(F)Cl
1-bromotricosane,403.53018,847.76,0.788,691.15,ClC=CC=C
1-bromotridecane,263.26138,739.06,0.726,565.15,CC(F)Cl
1-bromoundecane,235.20762,713.07,0.651,531.95,CCCCCC=CCl
1-butene,56.10752,419.59,0.187,266.9,CCCCC=CCl
"1-butyl-[1,2,3,4-tetrahydronaphthalene]",188.3128,756.75,0.511,546.28,CC=CCl
1-butylcyclopentene,124.22604,626.53,0.359,429.15,CCC(C)(C)CCl
1-butylnaphthalene,184.28104,792.0,0.495,562.54,CC(C)=C(C)CCl
"1-chloro-1,1,2,2-tetrafluoroethane",136.4762528,400.0,0.274,261.41,CC(C)C(C)CCl
"1-chloro-1,1,2-trifluoroethane",118.4857896,428.95,0.263,285.15,[O-][N+](=O)c1ccc(Cl)c(c1)[N+]([O-])=O
"1-chloro-1,1-difluoroethane",100.4953264,410.29,0.231,263.95,ClCc1ccccc1Cl
"1-chloro-1,2,2-trifluoroethane",118.4857896,428.68,0.295,290.15,CC=CCCl
"1-chloro-1,2-difluoroethane",100.4953264,435.18,0.271,280.69,CCC(CC)CCl
"1-chloro-1,3-butadiene",88.5364,525.0,0.193,341.15,FCCCl
1-chloro-1-fluoroethane,82.5048632,458.07,0.219,289.3,CCC(C)=CCl
1-chloro-1-heptene,132.63292,613.52,0.385,428.15,CC(C)=CCl
1-chloro-1-hexene,118.60604,583.61,0.341,394.15,CC=C(C)CCl
1-chloro-1-propene,76.5254,492.64,0.181,302.5,C/C=C/Cl
"1-chloro-2,2-dimethylbutane",120.62192,583.68,0.283,390.15,CCC(C)(C)CCl
"1-chloro-2,3-dimethyl-2-butene",118.60604,583.61,0.341,385.15,CCCC(C)CCl
"1-chloro-2,3-dimethylbutane",120.62192,586.34,0.314,395.15,CC(C)CCl
"1-chloro-2,4-dinitrobenzene",202.5536,813.77,0.732,588.0,CCC=CCCl
1-chloro-2-(chloromethyl)benzene,161.03004,710.0,0.343,490.15,CC(C)(C)CCCl
1-chloro-2-butene,90.55228,532.24,0.242,352.15,ClCc1cccc(Cl)c1
1-chloro-2-ethylbutane,120.62192,587.51,0.343,399.15,CCC=CCCCl
1-chloro-2-fluoroethane,82.5048632,511.0,0.251,326.15,CC(C)C=CCl
1-chloro-2-methyl-1-butene,104.57916,561.69,0.275,369.65,CC(C)=CCCl
1-chloro-2-methyl-1-propene,90.55228,532.31,0.227,341.25,CCCC(C)CCCl
1-chloro-2-methyl-2-butene,104.57916,561.69,0.275,383.15,CCC(C)CCCl
1-chloro-2-methyl-cis-2-butene,104.57916,580.52,0.271,381.15,ClCc1ccc(Cl)cc1
1-chloro-2-methyl-trans-2-butene,104.57916,575.95,0.271,378.15,CCC(CC)=CCCCl
1-chloro-2-methylpentane,120.62192,578.68,0.343,393.15,CC(C)CCCCl
1-chloro-2-methylpropane,92.56816,528.0,0.242,342.0,C\C=C/CCl
1-chloro-2-pentene,104.57916,561.69,0.275,381.15,CC\C=C/CCl
"1-chloro-3,3-dimethylbutane",120.62192,583.68,0.283,390.15,C/C=C/CCl
1-chloro-3-(chloromethyl)benzene,161.03004,710.0,0.343,489.15,CC/C=C/CCl
1-chloro-3-hexene,118.60604,583.61,0.341,395.45,CCCCCl
1-chloro-3-methyl-1-butene,104.57916,561.69,0.275,360.15,CCCCCCCCCCCl
1-chloro-3-methyl-2-butene,104.57916,583.57,0.271,383.15,CCCCCCCCCCCCCCCCCCCCCCCl
1-chloro-3-methylhexane,134.6488,621.08,0.418,424.15,CCCCCCCCCCCCCl
1-chloro-3-methylpentane,120.62192,591.93,0.343,402.15,CCCCCCCCCCCCCCCCCCCCCl
1-chloro-4-(chloromethyl)benzene,161.03004,710.0,0.343,496.15,CCCCCCCCCCCCCCCCCCCCCCl
1-chloro-4-ethyl-3-hexene,146.6598,640.48,0.43,446.15,CCCCCCCCCCCCCCCCCCl
1-chloro-4-methylpentane,120.62192,586.04,0.343,398.15,CCCCCCCCl
1-chloro-cis-2-butene,90.55228,553.11,0.252,357.35,CCCCCCCCCCCCCCCCCl
1-chloro-cis-2-pentene,104.57916,577.85,0.296,382.15,CCCCCCCl
1-chloro-trans-2-butene,90.55228,554.5,0.252,358.25,Clc1cccc2ccccc12
1-chloro-trans-2-pentene,104.57916,579.36,0.296,383.15,CCCCCCCCCCCCCCCCCCCCl
1-chlorobutane,92.56816,537.0,0.274,351.58,CCCCCCCCCCl
1-chlorodecane,176.72944,679.88,0.547,499.02,CCCCCCCCCCCCCCCCCCCl
1-chlorodocosane,345.052,821.75,0.758,668.15,CCCCCCCCCl
1-chlorododecane,204.7832,711.02,0.626,536.33,CCCCCCCCCCCCCCCCl
1-chloroeicosane,316.99824,800.64,0.782,646.15,CCCCl
1-chloroheneicosane,331.02512,810.87,0.774,657.15,CCCCCCCCCCCCCCCCCCCCCCCCCl
1-chloroheptadecane,274.9176,773.57,0.764,613.15,CCCCCCCCCCCCCCCl
1-chloroheptane,134.6488,621.08,0.418,433.59,CCCCCCCCCCCCCCCCCCCCCCCCl
1-chlorohexadecane,260.89072,762.66,0.746,599.75,CCCCCCCCCCCCCCl
1-chlorohexane,120.62192,596.19,0.373,408.24,CCCCCCCCCCCCl
1-chloronaphthalene,162.61828,785.0,0.383,532.45,CCCCCCCCCCO
1-chlorononadecane,302.97136,792.26,0.783,636.15,CCCCCCCCC=C
1-chlorononane,162.70256,661.88,0.505,478.37,CCCCCCCCCCC1CCCc2ccccc12
1-chlorooctadecane,288.94448,783.25,0.777,625.15,CCCCCCCCCCC1=CCCC1
1-chlorooctane,148.67568,642.41,0.462,456.62,CCCCCCCCCCc1cccc2ccccc12
1-chloropentadecane,246.86384,750.73,0.722,585.15,CCCCCCCCC#C
1-chloropropane,78.54128,503.15,0.228,319.67,CC(N)CN(C)C
1-chlorotetracosane,373.10576,843.04,0.703,688.15,CCCCCCCCCCCCCCCCCCCCC=C
1-chlorotetradecane,232.83696,738.54,0.694,569.99,CCCCCCCCCCCCCCCCCCCCC#C
1-chlorotricosane,359.07888,832.05,0.734,678.15,CCCCCCCCCCCCS
1-chlorotridecane,218.81008,724.59,0.661,553.15,CCCCCCCCCCCCO
1-chloroundecane,190.75632,696.43,0.588,518.49,CCCCCCCCCCC=C
1-decanol,158.28408,687.3,0.622,504.07,CCCCCCCCCCCCC1=CCCC1
1-decene,140.2688,617.0,0.475,443.75,CCCCCCCCCCCCc1cccc2ccccc12
"1-decyl-[1,2,3,4-tetrahydronaphthalene]",272.47408,814.16,0.73,634.15,CCCCCCCCCCC#C
1-decylcyclopentene,208.38732,718.6,0.611,542.15,CCCCCCCCCCCCCCCCCCCCS
1-decylnaphthalene,268.44232,859.0,0.642,652.0,CCCCCCCCCCCCCCCCCCCCO
1-decyne,138.25292,619.85,0.518,447.16,CCCCCCCCCCCCCCCCCCC=C
1-dimethylamino-2-propylamine,102.17964,637.67,0.591,385.65,CCCCCCCCCCCCCCCCCCC#C
1-docosene,308.59136,790.73,0.756,640.15,Cc1ccc(C=C)c(C)c1
1-docosyne,306.57548,793.12,0.765,639.15,Cc1cc(C)cc(C=C)c1
1-dodecanethiol,202.40444,724.0,0.666,547.75,CCOCC(C)O
1-dodecanol,186.33784,719.4,0.666,536.95,CCCCCCCCCCCCO
1-dodecene,168.32256,657.6,0.571,486.5,CCCCCCCCCCC=C
1-dodecylcyclopentene,236.44108,739.92,0.678,571.15,CCc1cc(C)cc(C)c1C
1-dodecylnaphthalene,296.49608,854.65,0.807,676.15,CCc1ccccc1C(C)C
1-dodecyne,166.30668,668.16,0.512,488.16,CCC1CCCCC1C
1-eicosanethiol,314.61948,814.57,0.809,656.16,CCCc1ccccc1CC
1-eicosanol,298.55288,809.0,0.918,645.5,CCc1cccc(c1)C(C)C
1-eicosene,280.5376,771.0,0.88,615.54,CCCc1cccc(CC)c1
1-eicosyne,278.52172,769.79,0.75,613.16,CCc1ccc(cc1)C(C)C
"1-ethenyl-2,4-dimethylbenzene",132.20528,693.48,0.375,475.26,CCCc1ccc(CC)cc1
"1-ethenyl-3,5-dimethylbenzene",132.20528,679.34,0.375,465.57,CCC1CCCc2ccccc12
1-ethoxy-2-propanol,104.14908,582.0,0.783,404.15,CCOCC(C)O
"1-ethyl,cis-decahydronaphthalene",166.30668,762.49,0.374,533.15,CCC1=CCCCC1
"1-ethyl-1-methyl-2,4-diisopropylcyclohexane, [1R-(1alpha,2beta,4beta)]",210.4032,737.79,0.577,549.62,CCC1=CCCC1
"1-ethyl-2,3,5-trimethylbenzene",148.24804,678.03,0.42,486.15,CCc1cccc2ccccc12
1-ethyl-2-isopropylbenzene,148.24804,666.0,0.418,466.15,CCC(CC)OC(C)=O
1-ethyl-2-methylcyclohexane,126.24192,621.31,0.29,425.5,CCCC(=O)OC(CC)CC
1-ethyl-2-propylbenzene,148.24804,676.56,0.442,476.15,CCC(CC)OC=O
1-ethyl-3-isopropylbenzene,148.24804,665.63,0.412,465.15,CCC(CC)OC(=O)CC
1-ethyl-3-propylbenzene,148.24804,673.72,0.442,474.15,CCC(C)(C)CF
1-ethyl-4-isopropylbenzene,148.24804,672.21,0.412,469.75,CC(C)C(C)CF
1-ethyl-4-propylbenzene,148.24804,679.41,0.442,478.15,CCC(CC)CF
"1-ethyl-[1,2,3,4-tetrahydronaphthalene]",160.25904,735.44,0.424,512.72,CC(C)=CF
1-ethyl-trans-decahydronaphthalene,166.30668,755.34,0.374,528.15,-
1-ethylcyclohexene,110.19916,617.68,0.285,410.14,CCC1=CCCCC1
1-ethylcyclopentene,96.17228,578.4,0.27,379.48,CCCC(C)CF
1-ethylnaphthalene,156.22728,776.0,0.407,531.48,CC(C)CF
1-ethylpropyl acetate,130.18696,577.0,0.464,405.15,CC(C)(C)CCF
1-ethylpropyl butanoate,158.24072,610.0,0.86,463.1,CC(C)=CCF
1-ethylpropyl formate,116.16008,579.0,0.375,393.76,CCC(C)CCF
1-ethylpropyl propanoate,144.21384,597.0,0.704,440.22,CC(C)CCCF
"1-fluoro-2,2-dimethylbutane",104.1676232,514.83,0.342,350.0,CC\C=C/CF
"1-fluoro-2,3-dimethylbutane",104.1676232,529.46,0.282,354.15,CC/C=C/CF
1-fluoro-2-ethylbutane,104.1676232,501.01,0.253,332.28,CCCCF
1-fluoro-2-methyl-1-propene,74.0979832,475.39,0.227,305.0,CCCCCCCCCCF
1-fluoro-2-methyl-cis-2-butene,88.1248632,482.63,0.271,317.11,CCCCCCCCCCCCCCCCCCCCCCF
1-fluoro-2-methyl-trans-2-butene,88.1248632,482.63,0.271,317.11,CCCCCCCCCCCCF
1-fluoro-2-methylpentane,104.1676232,522.41,0.342,355.15,CCCCCCCCCCCCCCCCCCCCF
1-fluoro-2-methylpropane,76.1138632,444.56,0.254,289.15,CCCCCCCCCCCCCCCCCCCCCF
"1-fluoro-3,3-dimethylbutane",104.1676232,517.29,0.313,348.85,CCCCCCCCCCCCCCCCCF
1-fluoro-3-methyl-2-butene,88.1248632,482.63,0.271,317.11,CCCCCCCF
1-fluoro-3-methylpentane,104.1676232,529.76,0.342,360.15,CCCCCCCCCCCCCCCCF
1-fluoro-4-methylpentane,104.1676232,525.35,0.342,357.15,CCCCCCF
1-fluoro-cis-2-pentene,88.1248632,479.34,0.296,317.23,CCCCCCCCCCCCCCCCCCCF
1-fluoro-trans-2-pentene,88.1248632,479.34,0.296,317.23,CCCCCCCCCF
1-fluorobutane,76.1138632,460.7,0.309,305.65,CCCCCCCCCCCCCCCCCCF
1-fluorodecane,160.2751432,623.1,0.555,459.35,CCCCCCCCF
1-fluorodocosane,328.5977032,783.55,0.755,637.15,CCCCCCCCCCCCCCCF
1-fluorododecane,188.3289032,658.6,0.625,498.15,CCCF
1-fluoroeicosane,300.5439432,756.8,0.782,614.15,CCCCCCCCCCCCCCF
1-fluoroheneicosane,314.5708232,772.53,0.771,626.15,CCCCCCCCCCCCCCCCCCCCCCCF
1-fluoroheptadecane,258.4633032,726.2,0.742,576.15,CCCCCCCCCCCCCF
1-fluoroheptane,118.1945032,555.8,0.436,391.05,CCCCCCCCCCCF
1-fluorohexadecane,244.4364232,714.6,0.719,562.15,CCCCCCCCCCCCCCCCCCCC=C
1-fluorohexane,104.1676232,528.1,0.391,364.65,CCCCCCCCCCCCCCCCCCCC#C
1-fluorononadecane,286.5170632,747.3,0.773,602.15,CCCCCCCCCCCCCCCCCS
1-fluorononane,146.2482632,602.9,0.518,438.15,CCCCCCCCCCCCCCCCCO
1-fluorooctadecane,272.4901832,737.1,0.753,589.15,CCCCCCCCCCCCCCCC=C
1-fluorooctane,132.2213832,580.5,0.479,415.45,CCCCCCCCCCCCCCCC#C
1-fluoropentadecane,230.4095432,702.1,0.698,547.15,CCCCCCC=O
1-fluoropropane,62.0869832,422.0,0.227,269.95,CCCCCCCO
1-fluorotetradecane,216.3826632,688.7,0.667,531.15,CCCCCC=C
1-fluorotricosane,342.6245832,795.19,0.731,648.15,CCCCCCCC1CCCc2ccccc12
1-fluorotridecane,202.3557832,674.2,0.646,515.15,CCCCCCCC1=CCCC1
1-fluoroundecane,174.3020232,641.6,0.588,479.15,CCCCCCCc1cccc2ccccc12
1-heneicosene,294.56448,779.35,0.762,628.15,CCCCCC#C