name,molweight,critical temperature (K),acentric factor,boiling point (K),SMILES
"1,2,4-trimethylnaphthalene",170.25416,782.54,0.492,555.15,C[CH]=[C]=[CH2]
"1,2,5,6-tetramethylnaphthalene",184.28104,810.54,0.535,585.41,CCC(O)CO
"1,2,5,8-tetramethylnaphthalene",184.28104,810.54,0.535,585.41,CC(C)C(C)(Br)CBr
"1,2,5-trichloro-3-methylbenzene",195.4748,737.0,0.26,503.15,CCC(C)(Br)CBr
"1,2,5-trimethyl-8-isopropylnaphthalene",212.3348,808.25,0.605,581.25,CC(C)(Br)CBr
"1,2,5-trimethylnaphthalene",170.25416,779.72,0.492,553.15,CC(C)(C)C(Br)CBr
"1,2,6,8-tetramethylnaphthalene",184.28104,810.54,0.535,585.41,CC(C)C(Br)CBr
"1,2,6-trimethylnaphthalene",170.25416,779.72,0.492,553.15,CCC(Br)CBr
"1,2,7-trimethylnaphthalene",170.25416,776.9,0.492,551.15,BrCCBr
"1,2,8-trimethylnaphthalene",170.25416,786.77,0.492,558.15,CCCCCC(Br)CBr
"1,2-bis(ethylthio)ethane",150.30916,673.0,0.37,490.15,CCCCC(Br)CBr
"1,2-bis(methylthio)ethane",122.2554,642.0,0.346,455.15,CCCCCCCC(Br)CBr
"1,2-butadiene",54.09164,452.0,0.166,284.0,CCCCCCC(Br)CBr
"1,2-butanediol",90.1222,680.0,0.631,469.57,CCCC(Br)CBr
"1,2-dibromo-2,3-dimethylbutane",243.96928,684.21,0.526,486.03,CC(Br)CBr
"1,2-dibromo-2-methylbutane",229.9424,665.93,0.414,446.15,FC(F)(Br)C(F)(F)Br
"1,2-dibromo-2-methylpropane",215.91552,644.38,0.369,422.15,FC(F)(Cl)C(F)(F)Cl
"1,2-dibromo-3,3-dimethylbutane",243.96928,684.21,0.526,486.03,FC(Cl)C(F)(F)Cl
"1,2-dibromo-3-methylbutane",229.9424,659.19,0.448,445.24,FC(F)(Cl)CCl
"1,2-dibromobutane",215.91552,659.28,0.429,439.46,FC1(F)C(F)(F)C(F)(Cl)C1(F)Cl
"1,2-dibromoethane",187.86176,650.15,0.207,404.51,FC(Cl)C(F)Cl
"1,2-dibromoheptane",257.99616,700.05,0.571,501.15,FC(Cl)CCl
"1,2-dibromohexane",243.96928,684.21,0.526,486.03,CC=C(Cl)CCl
"1,2-dibromononane",286.04992,729.44,0.659,545.65,CCC(C)(Cl)CCl
"1,2-dibromooctane",272.02304,716.02,0.616,514.15,CC(C)(Cl)CCl
"1,2-dibromopentane",229.9424,671.42,0.48,457.15,CC(C)C(Cl)CCl
"1,2-dibromopropane",201.88864,634.11,0.384,413.16,CC(C)(C)CC(Cl)CCl
"1,2-dibromotetrafluoroethane",259.8236128,487.8,0.243,320.31,ClCc1ccc(Cl)c(Cl)c1
"1,2-dichloro-1,1,2,2-tetrafluoroethane",170.9210128,418.85,0.252,276.92,[O-][N+](=O)c1ccc(Cl)c(Cl)c1
"1,2-dichloro-1,1,2-trifluoroethane",152.9305496,461.6,0.241,301.15,CCC(Cl)CCl
"1,2-dichloro-1,1-difluoroethane",134.9400864,495.15,0.298,319.78,ClCCCl
"1,2-dichloro-1,2,3,3,4,4-hexafluorocyclobutane",232.9398192,497.0,0.233,332.15,C1(C(C(C1(F)Cl)(F)Cl)(F)F)(F)F
"1,2-dichloro-1,2-difluoroethane",134.9400864,487.57,0.295,319.95,CCCCCC(Cl)CCl
"1,2-dichloro-1-fluoroethane",116.9496232,538.33,0.272,346.95,FC(F)(F)C(F)(Cl)C(F)(F)Cl
"1,2-dichloro-2-butene",124.99704,640.0,0.302,403.65,CCCCC(Cl)CCl
"1,2-dichloro-2-methylbutane",141.0398,615.95,0.291,407.15,CCCC(Cl)CCl
"1,2-dichloro-2-methylpropane",127.01292,584.32,0.247,380.15,CC(Cl)CCl
"1,2-dichloro-3-methylbutane",141.0398,620.02,0.323,416.15,CC(C)C(CCl)Cl
"1,2-dichloro-4,4-dimethylpentane",169.09356,654.02,0.442,448.15,CC(Cl)=CCl
"1,2-dichloro-4-(chloromethyl)benzene",195.4748,737.0,0.26,514.15,C1CCC(CC1)CCC2CCCCC2
"1,2-dichloro-4-nitrobenzene",192.00076,758.0,0.539,529.0,CC(CC1CCCCC1)C2CCCCC2
"1,2-dichlorobutane",127.01292,600.0,0.299,397.15,CCc1ccc2ccccc2c1CC
"1,2-dichloroethane",98.95916,561.6,0.287,356.59,CCC(C)(F)CF
"1,2-dichloroethylene, cis and trans",96.94328,505.67,0.267,328.15,CC(C)(F)CF
"1,2-dichloroheptane",169.09356,654.02,0.442,454.15,CC(C)C(F)CF
"1,2-dichlorohexafluoropropane",220.9288192,449.0,0.329,309.25,CCC(F)CF
"1,2-dichlorohexane",155.06668,633.09,0.397,446.15,FCCF
"1,2-dichloropentane",141.0398,620.88,0.352,420.15,CCCC(F)CF
"1,2-dichloropropane",112.98604,572.0,0.256,369.52,CC(F)CF
"1,2-dichloropropane, (±)",112.98604,568.62,0.249,369.55,Cc1cccc(O)c1O
"1,2-dichloropropene",110.97016,577.0,0.206,348.15,Cc1ccc(O)c(O)c1
"1,2-dicyclohexylethane",194.36044,762.12,0.429,545.65,CCC(C)(I)CI
"1,2-dicyclohexylpropane",208.38732,766.86,0.471,557.65,CC(C)(I)CI
"1,2-diethylnaphthalene",184.28104,812.35,0.537,585.41,CC(C)C(I)CI
"1,2-difluoro-2-methylbutane",108.1312064,463.73,0.29,309.11,CCC(I)CI
"1,2-difluoro-2-methylpropane",94.1043264,472.94,0.246,308.15,ICCI
"1,2-difluoro-3-methylbutane",108.1312064,463.41,0.321,311.46,CCCC(I)CI
"1,2-difluorobutane",94.1043264,487.3,0.306,323.15,CC(I)CI
"1,2-difluoroethane",66.0505664,445.0,0.222,283.65,CC(C)c1ccccc1C(C)C
"1,2-difluoropentane",108.1312064,513.8,0.351,348.15,COCCOC
"1,2-difluoropropane",80.0774464,443.3,0.265,288.15,CC(C)c1cccc(C)c1C
"1,2-dihydroxy-3-methylbenzene",124.13932,776.37,0.565,521.15,CCCc1cccc(C)c1C
"1,2-dihydroxy-4-methylbenzene",124.13932,791.27,0.565,531.15,CCc1cc(C)c(C)c2ccccc12
"1,2-diiodo-2-methylbutane",323.94334,752.99,0.271,496.85,CC(C)c1ccc(C)c(C)c1
"1,2-diiodo-2-methylpropane",309.91646,735.41,0.227,473.97,CCCc1ccc(C)c(C)c1
"1,2-diiodo-3-methylbutane",323.94334,750.13,0.302,499.2,CCc1ccc2ccc(C)c(C)c2c1
"1,2-diiodobutane",309.91646,726.41,0.281,476.76,CCC(CI)I
"1,2-diiodoethane",281.8627,749.91,0.223,473.16,CC1=C(C)CCCC1
"1,2-diiodopentane",323.94334,744.5,0.332,499.64,CC1CCCC1C
"1,2-diiodopropane",295.88958,780.49,0.237,500.16,CC1=C(C)CCC1
"1,2-diisopropylbenzene",162.27492,697.15,0.437,477.15,Cc1ccc2ccccc2c1C
"1,2-dimethoxyethane",90.1222,536.15,0.346,357.2,CC(C)C(C)OC(C)=O
"1,2-dimethyl-3-isopropylbenzene",148.24804,679.93,0.411,475.75,CCCC(=O)OC(C)C(C)C
"1,2-dimethyl-3-propylbenzene",148.24804,686.65,0.441,483.85,CC(C)C(C)OC=O
"1,2-dimethyl-4-ethylnaphthalene",184.28104,811.44,0.536,585.41,CCC(=O)OC(C)C(C)C
"1,2-dimethyl-4-isopropylbenzene",148.24804,678.79,0.411,474.95,CC(C)C(C)N
"1,2-dimethyl-4-propylbenzene",148.24804,684.1,0.441,482.05,CC(=Cc1ccccc1)c2ccccc2
"1,2-dimethyl-7-ethylnaphthalene",184.28104,811.44,0.536,585.41,CCC(Cc1ccccc1)c2ccccc2
"1,2-dimethylcyclohexane, (cis+trans)",112.21504,597.51,0.236,399.05,C(Cc1ccccc1)c2ccccc2
"1,2-dimethylcyclohexene",110.19916,621.08,0.26,411.13,CC(Cc1ccccc1)c2ccccc2
"1,2-dimethylcyclopentane",98.18816,556.47,0.271,370.0,CCCCCCCCCCCCCCCCCCC(O)CO
"1,2-dimethylcyclopentene",96.17228,579.44,0.245,378.95,CCC1CO1
"1,2-dimethylnaphthalene",156.22728,775.34,0.443,539.46,SCCS
"1,2-dimethylpropyl acetate",130.18696,576.0,0.435,401.65,CCC[CH]=[C]=[CH2]
"1,2-dimethylpropyl butanoate",158.24072,608.0,0.868,462.66,CCCCCCCCCCCCCCCCCC(O)CO
"1,2-dimethylpropyl formate",116.16008,573.0,0.409,393.32,CC[CH]=[C]=[CH2]
"1,2-dimethylpropyl propanoate",144.21384,593.0,0.735,439.78,CC(N)CN
"1,2-dimethylpropylamine",87.16496,527.4,0.393,357.15,CC(C)C(C)N
"1,2-diphenyl-1-propene",194.27616,796.49,0.465,558.65,C/C(=C\C1=CC=CC=C1)/C2=CC=CC=C2
"1,2-diphenylbutane",210.31892,778.3,0.452,564.15,CCC(CC1=CC=CC=C1)C2=CC=CC=C2
"1,2-diphenylethane",182.26516,780.0,0.488,553.65,CC1CO1
"1,2-diphenylpropane",196.29204,781.16,0.492,556.81,OCCCCCCCCCCCCCCCCCCCCO
"1,2-eicosanediol",314.55228,849.99,1.006,693.15,CC(Br)(Br)CCBr
"1,2-epoxybutane",72.10692,526.0,0.235,336.57,CC(Cl)(Cl)CCCl
"1,2-ethanedithiol",94.20164,663.0,0.257,419.2,CC(F)(F)CCF
"1,2-hexadiene",82.1454,526.0,0.276,349.15,CC(I)(I)CCI
"1,2-nonadecanediol",300.5254,831.78,1.074,679.15,CCCCCCCCCCCCCCCCCC(CO)O
"1,2-pentadiene",68.11852,500.0,0.154,318.01,C1=CC=CC=CC=C1
"1,2-propanediamine",74.12588,587.0,0.474,392.45,Cc1cc(C)c2c(C)ccc(C)c2c1
"1,2-propanediamine, (±)",74.12588,587.0,0.474,392.65,C1C=CC=CC=C1
"1,2-propanediol (propylene glycol)",76.09532,626.0,1.107,460.75,CC(C)(C)c1cc(cc(c1)C(C)(C)C)C(C)(C)C
"1,2-propanediol 1-methacrylate",144.17048,663.0,0.754,485.0,Nc1nc(N)nc(N)n1
"1,2-propylene oxide",58.08004,482.25,0.268,307.65,Clc1cc(Cl)cc(Cl)c1
"1,20-eicosanediol",314.55228,873.91,0.993,712.15,CCc1cc(CC)cc(CC)c1
"1,3,3-tribromobutane",294.81158,684.47,0.495,458.15,CC(C)c1cc(cc(c1)C(C)C)C(C)C
"1,3,3-trichlorobutane",161.45768,633.65,0.3,420.0,CCc1c(C)cc(C)cc1C
"1,3,3-trifluorobutane",112.0947896,429.82,0.298,285.5,Cc1cc(C)c2cccc(C)c2c1
"1,3,3-triiodobutane",435.81299,867.15,0.269,567.11,[O-][N+](=O)c1cc(cc(c1)[N+]([O-])=O)[N+]([O-])=O
"1,3,5,-trimethylcyclohexane",126.24192,621.31,0.29,411.0,Cc1cc(C)c2cc(C)c(C)cc2c1
"1,3,5,7-cyclooctatetraene",104.15152,642.55,0.244,413.16,Cc1cc(C)c2c(C)cc(C)cc2c1
"1,3,5,8-tetramethylnaphthalene",184.28104,810.54,0.535,585.41,Cc1ccc2c(C)cc(C)cc2c1
"1,3,5-cycloheptatriene",92.14052,593.9,0.324,388.65,Cc1ccc2cc(C)cc(C)c2c1
"1,3,5-tri-tert-butylbenzene",246.4362,754.52,0.742,521.25,CC(C)c1ccc(C)c2c(C)cc(C)cc12
"1,3,5-triazine-2,4,6-triamine",126.12108,1017.0,0.695,704.0,Cc1cc(C)c2c(C)cccc2c1
"1,3,5-trichlorobenzene",181.44792,718.0,0.36,481.55,CSCCCSC
"1,3,5-triethylbenzene",162.27492,678.0,0.508,489.05,CC(N)CCN
"1,3,5-triisopropylbenzene",204.35556,741.0,0.638,511.15,CC(O)CCO
"1,3,5-trimethyl-2-ethylbenzene",148.24804,688.22,0.441,485.55,C1CC=CC=C1
"1,3,5-trimethylnaphthalene",170.25416,786.07,0.492,557.65,C1CCC=CC=CC1
"1,3,5-trinitrobenzene",213.10644,846.0,0.862,629.6,CC(C)(C)c1cccc(c1)C(C)(C)C
"1,3,6,7-tetramethylnaphthalene",184.28104,810.54,0.535,585.41,CCC(N)CCN
"1,3,6,8-tetramethylnaphthalene",184.28104,807.6,0.524,576.21,CC(C)(CBr)CBr
"1,3,6-trimethylnaphthalene",170.25416,779.72,0.492,553.15,BrCC(CBr)CBr
"1,3,7-trimethylnaphthalene",170.25416,779.72,0.492,553.15,CCC(CBr)CBr
"1,3,8-trimethyl-5-isopropylnaphthalene",212.3348,808.25,0.605,581.25,CC(Br)C(C)CBr
"1,3,8-trimethylnaphthalene",170.25416,786.77,0.492,558.15,CC(CBr)CBr
"1,3-bis(methylthio)propane",136.28228,657.5,0.358,364.15,CC(C)(Br)CCBr
"1,3-butanediamine",88.15276,612.33,0.533,419.15,CC(Br)CCBr
"1,3-butanediol",90.1222,676.0,0.704,481.38,CCC(Br)CCBr
"1,3-cyclohexadiene",80.12952,558.0,0.231,353.49,BrCCCBr
"1,3-cyclooctadiene",108.18328,645.0,0.286,416.15,CC(Cl)C=CCl
"1,3-di-tert-butylbenzene",190.32868,712.89,0.565,523.94,CC(C)(CCl)CCl
"1,3-diaminopentane",102.17964,637.67,0.591,437.15,CC(CCl)(CCl)CCl
"1,3-dibromo-2,2-dimethylpropane",229.9424,686.65,0.382,456.15,ClCC(CCl)CCl
"1,3-dibromo-2-(bromomethyl)propane",294.81158,724.93,0.565,493.15,C(C(CBr)CBr)Br
"1,3-dibromo-2-ethylpropane",229.9424,661.07,0.414,442.89,CCC(CCl)CCl
"1,3-dibromo-2-methylbutane",229.9424,659.19,0.448,445.24,CC(Cl)C(C)CCl
"1,3-dibromo-2-methylpropane",215.91552,672.32,0.435,448.15,CC(CCl)CCl
"1,3-dibromo-3-methylbutane",229.9424,661.07,0.414,442.89,OC(CCl)CCl
"1,3-dibromobutane",215.91552,672.32,0.435,448.15,CC(C)(Cl)CCCl
"1,3-dibromopentane",229.9424,680.24,0.48,463.15,ClCc1cc(Cl)cc(Cl)c1
"1,3-dibromopropane",201.88864,669.94,0.422,440.45,C(CBr)CBr
"1,3-dichloro-1-butene",124.99704,640.0,0.302,398.15,CC(Cl)CCCl
"1,3-dichloro-2,2-dimethylpropane",141.0398,629.69,0.291,419.15,CCC(Cl)CCCl
"1,3-dichloro-2-(chloromethyl)-2-methylpropane",175.48456,635.09,0.345,447.65,ClCCCCl
"1,3-dichloro-2-(chloromethyl)-propane",161.45768,597.58,0.362,402.77,-
"1,3-dichloro-2-butene, cis and trans",124.99704,640.0,0.302,401.15,CCC(CC1CCCCC1)CC2CCCCC2
"1,3-dichloro-2-ethylpropane",141.0398,617.7,0.352,418.0,CC(CC1CCCCC1)CC2CCCCC2
"1,3-dichloro-2-methylbutane",141.0398,622.78,0.323,418.0,CC(CCC1CCCCC1)C2CCCCC2
"1,3-dichloro-2-methylpropane",127.01292,616.35,0.308,408.15,C1CCC(CC1)CCCC2CCCCC2
"1,3-dichloro-2-propanol",128.98544,633.0,0.7,447.45,C(C(CCl)O)Cl
"1,3-dichloro-3-methylbutane",141.0398,627.97,0.291,419.85,CCC1CCC(CC)C1
"1,3-dichloro-5-(chloromethyl)benzene",195.4748,737.0,0.26,483.65,CC(C)(CF)CF
"1,3-dichloro-trans-2-butene",124.99704,618.0,0.242,402.0,FCC(CF)CF
"1,3-dichlorobutane",127.01292,614.09,0.308,406.65,CCC(CF)CF
"1,3-dichloropentane",141.0398,632.7,0.352,428.15,CC(F)C(C)CF
"1,3-dichloropropane",112.98604,603.0,0.292,393.55,CC(CF)CF
"1,3-dichloropropene; (cis+trans)",110.97016,577.0,0.206,380.65,CC(C)(F)CCF
"1,3-dicyclohexyl-2-ethylpropane",236.44108,776.31,0.551,579.15,CC(F)CCF
"1,3-dicyclohexyl-2-methylpropane",222.4142,768.14,0.512,568.35,CCC(F)CCF
"1,3-dicyclohexylbutane",222.4142,768.14,0.512,576.34,FCCCF
"1,3-dicyclohexylpropane",208.38732,766.86,0.471,564.65,Cc1c(O)cccc1O
"1,3-dicyclopentadiene",132.20528,660.0,0.288,443.0,Cc1ccc(O)cc1O
"1,3-diethylcyclopentane",126.24192,610.99,0.302,423.15,Cc1cc(O)cc(O)c1
"1,3-difluoro-2,2-dimethylpropane",108.1312064,463.73,0.29,309.11,CC(C)(CI)CI
"1,3-difluoro-2-(fluoromethyl)-propane",112.0947896,426.87,0.36,288.29,ICC(CI)CI
"1,3-difluoro-2-ethylpropane",108.1312064,460.3,0.351,311.9,CCC(CI)CI
"1,3-difluoro-2-methylbutane",108.1312064,463.41,0.321,311.46,CC(I)C(C)CI
"1,3-difluoro-2-methylpropane",94.1043264,506.9,0.306,336.15,CC(CI)CI
"1,3-difluoro-3-methylbutane",108.1312064,463.73,0.29,309.11,CC(C)(I)CCI
"1,3-difluorobutane",94.1043264,502.38,0.306,333.15,CC(I)CCI
"1,3-difluoropentane",108.1312064,521.18,0.351,353.15,CCC(I)CCI
"1,3-difluoropropane",80.0774464,480.87,0.292,314.45,ICCCI
"1,3-dihydroxy-2-methylbenzene",124.13932,801.7,0.565,538.15,CC(C)c1c(C)cccc1C
"1,3-dihydroxy-4-methylbenzene",124.13932,809.15,0.565,543.15,CCCc1c(C)cccc1C
"1,3-dihydroxy-5-methylbenzene",124.13932,834.47,0.565,560.15,CC(C)c1ccc(C)cc1C
"1,3-diiodo-2,2-dimethylpropane",323.94334,752.99,0.271,496.85,Cc1ccc(c(C)c1)c2ccccc2
"1,3-diiodo-2-(iodomethyl)-propane",435.81299,856.37,0.331,569.9,CCCc1ccc(C)cc1C
"1,3-diiodo-2-ethylpropane",323.94334,744.5,0.332,499.64,CCc1cccc2c(C)cc(C)cc12
"1,3-diiodo-2-methylbutane",323.94334,750.13,0.302,499.2,CC(C)c1cc(C)cc(C)c1
"1,3-diiodo-2-methylpropane",309.91646,726.41,0.287,476.76,Cc1cc(C)cc(c1)c2ccccc2
"1,3-diiodo-3-methylbutane",323.94334,752.99,0.271,496.85,CCCc1cc(C)cc(C)c1
"1,3-diiodobutane",309.91646,726.41,0.287,476.76,CCc1ccc2c(C)cc(C)cc2c1
"1,3-diiodopentane",323.94334,744.5,0.332,499.64,CC12CC3CC(C1)CC(C)(C3)C2
"1,3-diiodopropane",295.88958,766.97,0.273,496.15,C(CI)CI
"1,3-dimethyl-2-isopropylbenzene",148.24804,674.78,0.411,472.15,CC1CCCC(=C1)C
"1,3-dimethyl-2-propylbenzene",148.24804,682.26,0.441,480.75,CC1CCC(C)C1
"1,3-dimethyl-4-isopropylbenzene",148.24804,674.93,0.411,472.25,CC1CCC(=C1)C
"1,3-dimethyl-4-phenyl benzene",182.26516,783.2,0.444,543.15,Cc1cc(C)c2ccccc2c1
"1,3-dimethyl-4-propylbenzene",148.24804,680.84,0.441,479.75,C1COCOC1
"1,3-dimethyl-5-ethylnaphthalene",184.28104,811.44,0.536,585.41,CC(C=Cc1ccccc1)c2ccccc2
"1,3-dimethyl-5-isopropylbenzene",148.24804,668.35,0.411,467.65,C(C=Cc1ccccc1)c2ccccc2
"1,3-dimethyl-5-phenyl benzene",182.26516,785.0,0.476,548.15,CC(Cc1ccccc1)Cc2ccccc2
"1,3-dimethyl-5-propylbenzene",148.24804,674.65,0.441,475.39,CCCC1=CC(=CC(=C1)C)C
"1,3-dimethyl-6-ethylnaphthalene",184.28104,811.44,0.536,585.41,CCC(CCc1ccccc1)c2ccccc2
"1,3-dimethyladamantane",164.2908,708.0,0.293,476.44,C(Cc1ccccc1)Cc2ccccc2
"1,3-dimethylcyclohexane, cis and trans",112.21504,597.51,0.236,393.1,N(N=Nc1ccccc1)c2ccccc2
"1,3-dimethylcyclohexene",110.19916,604.64,0.26,400.25,CCCCCCCCCCCCCCCCCC(O)CCO
"1,3-dimethylcyclopentane",98.18816,556.47,0.271,365.1,CC1CCC(C1)C
"1,3-dimethylcyclopentene",96.17228,558.34,0.245,365.15,CCCCCCCCCCCCCCCCC(O)CCO
"1,3-dimethylnaphthalene",156.22728,773.76,0.443,538.36,CC1=CC2=CC=CC=C2C(=C1)C
"1,3-dioxane",88.10632,590.0,0.289,378.15,NCCCN
"1,3-diphenyl-1-butene",208.30304,790.85,0.509,584.15,OCCCO
"1,3-diphenyl-1-propene",194.27616,796.49,0.465,575.15,C1COC1
"1,3-diphenyl-2-methylpropane",210.31892,778.3,0.452,576.15,Cc1ccc(C)c2c(C)ccc(C)c12
"1,3-diphenylbutane, (±)",210.31892,778.3,0.452,566.15,Cc1ccc(C)c2c(C)cccc12
"1,3-diphenylpentane",224.3458,786.4,0.587,577.15,Cc1ccc(C)c2cc(C)c(C)cc12
"1,3-diphenylpropane",196.29204,797.05,0.523,571.85,Cc1ccc2c(C)ccc(C)c2c1
"1,3-diphenyltriazene",197.23956,845.0,0.623,610.0,O=Cc1ccc(C=O)cc1
"1,3-eicosanediol",314.55228,863.48,1.006,704.15,NCCCCN
"1,3-hexadiene, cis and trans",82.1454,526.51,0.25,346.55,C1C=CCC=C1
"1,3-nonadecanediol",300.5254,845.25,1.074,690.15,OC(=O)C1CCC(CC1)C(O)=O
"1,3-pentadiene; (cis+trans)",68.11852,492.61,0.153,315.05,C1CC=CCC=CC1
"1,3-propanediamine",74.12588,608.0,0.506,410.15,CC(C)(C)c1ccc(cc1)C(C)(C)C
"1,3-propanediol",76.09532,724.0,0.74,487.55,CC(CBr)C(C)CBr
"1,3-propylene oxide",58.08004,520.0,0.201,321.0,CC(CBr)CCBr
"1,4,5,8-tetramethylnaphthalene",184.28104,810.54,0.535,585.41,BrCCCCBr
"1,4,5-trimethylnaphthalene",170.25416,786.77,0.492,558.15,CCC(Br)CCCBr
"1,4,6,7-tetramethylnaphthalene",184.28104,810.54,0.535,585.41,CCCCC(Br)CCCBr
"1,4,6-trimethylnaphthalene",170.25416,776.9,0.492,551.15,CC(Br)CCCBr
"1,4-benzenedicarboxaldehyde",134.13444,739.0,0.583,519.65,ClCC=CCCl
"1,4-butanediamine",88.15276,612.33,0.533,431.65,CC(CCl)CCCl
"1,4-cyclohexadiene",80.12952,569.0,0.205,360.15,ClC\C=C/CCl
"1,4-cyclohexanedicarboxylic acid",172.18088,889.0,1.036,669.0,ClC\C=C\CCl
"1,4-cyclooctadiene",108.18328,645.0,0.286,418.15,ClCCCCCl
"1,4-di-tert-butylbenzene",190.32868,708.0,0.502,510.43,CC(Cl)CCCCl
"1,4-dibromo-2,3-dimethylbutane",243.96928,684.21,0.526,486.03,C1CCC(CC1)CCCCC2CCCCC2
"1,4-dibromo-2-methylbutane",229.9424,654.58,0.48,445.68,CCc1ccc(CC)c2ccccc12
"1,4-dibromobutane",215.91552,699.44,0.467,470.15,CC(CF)CCF
"1,4-dibromohexane",243.96928,684.21,0.526,486.03,FCCCCF
"1,4-dibromooctane",272.02304,716.02,0.616,524.48,CC(F)CCCF
"1,4-dibromopentane",229.9424,694.92,0.48,473.15,Cc1cc(O)ccc1O
"1,4-dichloro-2-butene",124.99704,640.0,0.302,430.15,CC(CI)CCI
"1,4-dichloro-2-methylbutane",141.0398,617.7,0.352,441.65,ICCCCI
"1,4-dichloro-cis-2-butene",124.99704,640.0,0.33,425.65,CC(I)CCCI
"1,4-dichloro-trans-2-butene",124.99704,646.0,0.328,429.26,CC(C)c1cc(C)ccc1C
"1,4-dichlorobutane",127.01292,641.0,0.326,428.25,Cc1ccc(C)c(c1)c2ccccc2
"1,4-dichloropentane",141.0398,643.04,0.352,435.15,CCCc1cc(C)ccc1C
"1,4-dicyclohexylbutane",222.4142,768.14,0.512,578.15,CCc1cccc2c(C)ccc(C)c12
"1,4-diethylnaphthalene",184.28104,812.35,0.537,585.41,CCc1ccc2c(C)ccc(C)c2c1
"1,4-difluoro-2-methylbutane",108.1312064,460.3,0.351,311.9,CC(CCF)CF
"1,4-difluorobutane",94.1043264,524.74,0.336,350.95,CC1CCC(=CC1)C
"1,4-difluoropentane",108.1312064,530.03,0.351,359.15,CC1CC=C(C)C1
"1,4-dihydroxy-2-methylbenzene",124.13932,828.51,0.565,556.15,Cc1ccc(C)c2ccccc12
"1,4-diiodo-2-methylbutane",323.94334,744.5,0.332,499.64,C1COCCO1
"1,4-diiodobutane",309.91646,720.71,0.317,477.2,C(CCc1ccccc1)Cc2ccccc2
"1,4-diiodopentane",323.94334,744.5,0.332,499.64,CCCc1ccc(CCC)cc1
"1,4-dimethyl-2-isopropylbenzene",148.24804,670.78,0.411,469.35,CCCCCCCCCCCCCCCCC(O)CCCO
"1,4-dimethyl-2-phenyl benzene",182.26516,796.0,0.354,540.15,CC=CCC=C
"1,4-dimethyl-2-propylbenzene",148.24804,677.57,0.441,477.45,CCCCCCCCCCCCCCCC(O)CCCO
"1,4-dimethyl-5-ethylnaphthalene",184.28104,811.44,0.536,585.41,C=CCC=C
"1,4-dimethyl-6-ethylnaphthalene",184.28104,811.44,0.536,585.41,-
"1,4-dimethylcyclohexane, (cis+trans)",112.21504,597.51,0.236,395.9,-
"1,4-dimethylcyclohexene",110.19916,606.0,0.26,401.65,CC1=CCCC1(C)C
"1,4-dimethylcyclopentene",96.17228,560.17,0.245,366.35,C1CC=CCCC=CCCC=C1
"1,4-dimethylnaphthalene",156.22728,776.78,0.443,540.46,C1CC=CCCC=C1
"1,4-dioxane",88.10632,587.0,0.28,374.47,CC(CN)CCCN
"1,4-diphenylbutane",210.31892,778.3,0.452,590.15,CC(CCBr)CCBr
"1,4-dipropylbenzene",162.27492,697.15,0.437,481.77,CCC(Br)CCCCBr
"1,4-eicosanediol",314.55228,889.23,1.006,725.15,CC(Br)CCCCBr
"1,4-hexadiene",82.1454,510.0,0.28,338.15,CCCC(Br)CCCCBr
"1,4-nonadecanediol",300.5254,870.97,1.074,711.15,BrCCCCCBr
"1,4-pentadiene",68.11852,479.0,0.084,299.11,CC(C)(CCCl)CCCl
"1,4a-dimethyl-cis-decahydronaphthalene",166.30668,707.09,0.349,493.15,ClCCCCCCl
"1,4a-dimethyl-trans-decahydronaphthalene",166.30668,697.05,0.349,486.15,C1CCC(CC1)CCCCCC2CCCCC2
"1,5,5-trimethylcyclopentene",110.19916,602.71,0.315,382.15,FCCCCCF
"1,5,9-cyclododecatriene",162.27492,745.0,0.403,514.65,ICCCCCI
"1,5-cyclooctadiene",108.18328,645.0,0.286,423.27,O=C=Nc1cccc2c(cccc12)N=C=O
"1,5-diamino-2-methylpentane",116.20652,663.0,0.65,466.15,CC(C)C1CC=C(C)C1C
"1,5-dibromo-3-methylpentane",243.96928,684.21,0.526,486.03,CC1CCC=C(C)C1
"1,5-dibromoheptane",257.99616,700.05,0.571,510.82,CC1CCC=C1C
"1,5-dibromohexane",243.96928,684.21,0.526,486.03,Cc1cccc2c(C)cccc12
"1,5-dibromooctane",272.02304,716.02,0.616,524.48,C(CCc1ccccc1)CCc2ccccc2
"1,5-dibromopentane",229.9424,722.02,0.513,495.45,C=CCCC=C
"1,5-dichloro-3,3-dimethylpentane",169.09356,654.02,0.442,454.15,NCCCCCN
"1,5-dichloropentane",141.0398,668.0,0.377,456.16,Cc1cc2cccc(C)c2cc1C