name,molweight,critical temperature (K),acentric factor,boiling point (K),SMILES
cholesterol,386.66164,959.0,0.948,771.0,CCCCCCCCCCC\C=C/Br
chromium oxychloride,154.9003,626.33,0.256,390.15,-
chrysene,228.29328,979.0,0.603,714.15,CC(C)\C=C/Br
"cis,cis-1,3,5-trimethylcyclohexane",126.24192,607.86,0.274,411.66,CC\C=C/Cl
"cis,cis-1,3-cyclooctadiene",108.18328,645.0,0.286,327.15,CCCCCCCC\C=C/Cl
"cis,cis-1,5-cyclooctadiene",108.18328,645.0,0.286,424.15,CCCCCCCCCC\C=C/Cl
"cis,trans-1,3,5-trimethylcyclohexane",126.24192,602.2,0.367,413.7,CCCCCCCCCCCCCCCCCC\C=C/Cl
cis-(1-butenyl)benzene,132.20528,678.55,0.366,462.15,CCCCCCCCCCCCCCC\C=C/Cl
cis-(1-methyl-1-propenyl)benzene,132.20528,654.0,0.361,447.15,CCCCC\C=C/Cl
"cis-1,1,3,5-tetramethylcyclohexane",140.2688,667.0,0.274,425.65,CCCCCCCCCCCCCC\C=C/Cl
"cis-1,2-di-tert-butylethene",140.2688,616.98,0.457,439.96,CCCC\C=C/Cl
"cis-1,2-dichloroethylene",96.94328,544.0,0.135,333.65,CCCCCCCCCCCCCCCCC\C=C/Cl
"cis-1,2-dichloropropene",110.97016,577.0,0.206,366.15,CCCCCCC\C=C/Cl
"cis-1,2-difluoroethene",64.0346864,394.67,0.21,245.15,CCCCCCCCCCCCCCCC\C=C/Cl
"cis-1,2-dimethylcyclohexane",112.21504,606.15,0.232,402.94,CCCCCC\C=C/Cl
"cis-1,2-dimethylcyclopentane",98.18816,565.15,0.266,372.68,CCCCCCCCCCCCC\C=C/Cl
"cis-1,3-dichloro-2-butene",124.99704,640.0,0.302,403.15,CCC\C=C/Cl
"cis-1,3-dichloropropene",110.97016,577.0,0.206,377.45,C\C=C/Cl
"cis-1,3-dimethylcyclohexane",112.21504,591.15,0.237,393.24,CCCCCCCCCCCC\C=C/Cl
"cis-1,3-dimethylcyclopentane",98.18816,551.0,0.274,363.92,CCCCCCCCCCC\C=C/Cl
"cis-1,3-pentadiene",68.11852,499.0,0.147,317.22,CCCCCCCCC\C=C/Cl
"cis-1,4-dimethylcyclohexane",112.21504,598.15,0.231,397.47,CC1CCC(CC1)C
cis-1-bromo-1-butene,135.00358,554.15,0.312,359.3,CC(C)\C=C/Cl
cis-1-bromo-1-decene,219.16486,683.71,0.579,498.15,CC\C=C/F
cis-1-bromo-1-dodecene,247.21862,712.56,0.661,534.15,CCCCCCCC\C=C/F
cis-1-bromo-1-eicosene,359.43366,805.01,0.839,648.15,CCCCCCCCCC\C=C/F
cis-1-bromo-1-heptadecene,317.35302,772.65,0.812,610.15,CCCCCCCCCCCCCCCCCC\C=C/F
cis-1-bromo-1-heptene,177.08422,630.55,0.447,436.15,CCCCCCCCCCCCCCC\C=C/F
cis-1-bromo-1-hexadecene,303.32614,761.27,0.79,596.15,CCCCC\C=C/F
cis-1-bromo-1-hexene,163.05734,609.39,0.402,413.15,CCCCCCCCCCCCCC\C=C/F
cis-1-bromo-1-nonadecene,345.40678,794.49,0.836,636.15,CCCC\C=C/F
cis-1-bromo-1-nonene,205.13798,666.86,0.536,478.15,CCCCCCCCCCCCCCCCC\C=C/F
cis-1-bromo-1-octadecene,331.3799,783.3,0.827,623.15,CCCCCCC\C=C/F
cis-1-bromo-1-octene,191.1111,643.03,0.492,453.15,CCCCCCCCCCCCCCCC\C=C/F
cis-1-bromo-1-pentadecene,289.29926,750.39,0.764,582.15,CCCCCC\C=C/F
cis-1-bromo-1-pentene,149.03046,584.97,0.357,388.15,CCCCCCCCCCCCC\C=C/F
cis-1-bromo-1-propene,120.9767,523.23,0.268,330.95,CCC\C=C/F
cis-1-bromo-1-tetradecene,275.27238,738.68,0.733,567.15,C\C=C/F
cis-1-bromo-1-tridecene,261.2455,726.09,0.699,551.15,CCCCCCCCCCCC\C=C/F
cis-1-bromo-1-undecene,233.19174,699.36,0.621,517.15,CCCCCCCCCCC\C=C/F
cis-1-bromo-2-methyl-1-butene,149.03046,592.21,0.331,390.15,CCCCCCCCC\C=C/F
cis-1-bromo-3-methyl-1-butene,149.03046,582.5,0.326,383.15,C\C=C/CF
cis-1-chloro-1-butene,90.55228,521.07,0.252,336.65,CC/C=C\Cl
cis-1-chloro-1-decene,174.71356,682.53,0.516,496.15,CC(C)\C=C/F
cis-1-chloro-1-dodecene,202.76732,716.62,0.598,536.15,CC\C=C/I
cis-1-chloro-1-eicosene,314.98236,815.57,0.779,656.15,CCCCCCCC\C=C/I
cis-1-chloro-1-heptadecene,272.90172,782.44,0.749,617.15,CCCCCCCCCC\C=C/I
cis-1-chloro-1-heptene,132.63292,613.52,0.385,423.15,CCCCCCCCCCCCCCCCCC\C=C/I
cis-1-chloro-1-hexadecene,258.87484,771.23,0.727,603.15,CCCCCCCCCCCCCCC\C=C/I
cis-1-chloro-1-hexene,118.60604,583.61,0.341,394.45,CCCCC\C=C/I
cis-1-chloro-1-nonadecene,300.95548,805.2,0.775,644.15,CCCCCCCCCCCCCC\C=C/I
cis-1-chloro-1-nonene,160.68668,662.93,0.474,474.15,CCCC\C=C/I
cis-1-chloro-1-octadecene,286.9286,794.17,0.765,631.15,CCCCCCCCCCCCCCCCC\C=C/I
cis-1-chloro-1-octene,146.6598,640.48,0.43,450.15,CCCCCCC\C=C/I
cis-1-chloro-1-pentadecene,244.84796,757.95,0.7,587.15,CCCCCCCCCCCCCCCC\C=C/I
cis-1-chloro-1-pentene,104.57916,546.85,0.296,361.65,CCCCCC\C=C/I
cis-1-chloro-1-propene,76.5254,485.56,0.208,305.95,CCCCCCCCCCCCC\C=C/I
cis-1-chloro-1-tetradecene,230.82108,745.1,0.669,571.15,CCC\C=C/I
cis-1-chloro-1-tridecene,216.7942,731.35,0.635,554.15,C\C=C/I
cis-1-chloro-1-undecene,188.74044,700.84,0.558,517.15,CCCCCCCCCCCC\C=C/I
cis-1-chloro-2-methyl-1-butene,104.57916,553.1,0.271,363.15,CCCCCCCCCCC\C=C/I
cis-1-chloro-3-methyl-1-butene,104.57916,558.56,0.267,366.15,CCCCCCCCC\C=C/I
cis-1-fluoro-1-butene,74.0979832,455.25,0.251,294.35,-
cis-1-fluoro-1-decene,158.2592632,593.48,0.515,431.63,CC(C)\C=C/I
cis-1-fluoro-1-dodecene,186.3130232,637.82,0.597,477.39,C\C=C/c1ccccc1C
cis-1-fluoro-1-eicosene,298.5280632,820.75,0.776,660.43,C\C=C/c1cccc(C)c1
cis-1-fluoro-1-heptadecene,256.4474232,750.1,0.747,591.79,C\C=C/c1ccc(C)cc1
cis-1-fluoro-1-heptene,116.1786232,525.96,0.385,362.99,C[C@@H]1CC[C@@H](CC1)C(C)C
cis-1-fluoro-1-hexadecene,242.4205432,727.24,0.725,568.91,C\C=C/c1ccccc1
cis-1-fluoro-1-hexene,102.1517432,502.87,0.34,340.11,-
cis-1-fluoro-1-nonadecene,284.5011832,796.8,0.773,637.55,-
cis-1-fluoro-1-nonene,144.2323832,571.18,0.473,408.75,-
cis-1-fluoro-1-octadecene,270.4743032,773.26,0.763,614.67,-
cis-1-fluoro-1-octene,130.2055032,548.71,0.429,385.87,C\C=C/C
cis-1-fluoro-1-pentadecene,228.3936632,704.64,0.699,546.03,C\C=C/C(O)=O
cis-1-fluoro-1-pentene,88.1248632,479.34,0.296,317.23,CCCCCCC\C=C/C
cis-1-fluoro-1-propene,60.0711032,430.49,0.208,271.47,CCCCCCCCC\C=C/C
cis-1-fluoro-1-tetradecene,214.3667832,682.24,0.668,523.15,-
cis-1-fluoro-1-tridecene,200.3399032,659.99,0.634,500.27,CCCC\C=C/C
cis-1-fluoro-1-undecene,172.2861432,615.67,0.557,454.51,CCC\C=C/C
cis-1-fluoro-2-butene,74.0979832,455.25,0.251,294.35,C/C=C(/C)C(O)=O
cis-1-fluoro-2-methyl-1-butene,88.1248632,482.63,0.271,317.11,C[C@H]1CCCC[C@H]1O
cis-1-fluoro-3-methyl-1-butene,88.1248632,482.91,0.266,316.79,C[C@H]1CCCC[C@H]1N
cis-1-iodo-1-butene,182.00405,686.08,0.242,441.15,CCCCC\C=C/C
cis-1-iodo-1-decene,266.16533,721.89,0.506,523.15,CC\C=C/C
cis-1-iodo-1-dodecene,294.21909,747.98,0.588,558.15,CC\C=C/C(O)=O
cis-1-iodo-1-eicosene,406.43413,832.59,0.777,669.15,CCCCCCCC\C=C/C
cis-1-iodo-1-heptadecene,364.35349,802.73,0.743,632.15,CC/C=C(Cl)/CC
cis-1-iodo-1-heptene,224.08469,677.01,0.375,465.15,CCC\C=C/CC
cis-1-iodo-1-hexadecene,350.32661,791.82,0.72,618.15,CC\C=C/CC
cis-1-iodo-1-hexene,210.05781,659.87,0.33,444.15,CC\C=C/CCOC=O
cis-1-iodo-1-nonadecene,392.40725,822.45,0.772,657.15,C[C@@H]1CCC[C@H](O)C1
cis-1-iodo-1-nonene,252.13845,708.62,0.463,505.15,C[C@@H]1CCC[C@H](N)C1
cis-1-iodo-1-octadecene,378.38037,812.93,0.76,645.15,CCCCC\C=C/CCO
cis-1-iodo-1-octene,238.11157,692.75,0.419,485.15,CCCC\C=C/CC
cis-1-iodo-1-pentadecene,336.29973,781.44,0.693,604.15,C\C=C/C#C
cis-1-iodo-1-pentene,196.03093,641.17,0.286,422.15,C\C=C/CC(O)=O
cis-1-iodo-1-propene,167.97717,582.79,0.198,365.34,-
cis-1-iodo-1-tetradecene,322.27285,771.57,0.661,590.15,C[C@H]1CC[C@@H](O)CC1
cis-1-iodo-1-tridecene,308.24597,759.56,0.626,574.15,C[C@H]1CC[C@@H](N)CC1
cis-1-iodo-1-undecene,280.19221,735.45,0.548,541.15,CCC\C=C/CCC
cis-1-iodo-2-methyl-1-butene,196.03093,628.8,0.261,410.98,CCCCCC\C=C/CCC
cis-1-iodo-3-methyl-1-butene,196.03093,629.33,0.257,410.66,CCCC\C=C/CCCC
cis-1-methyl-2-(1-propenyl)benzene,132.20528,682.61,0.365,465.57,CCCCC\C=C/CCCC
cis-1-methyl-3-(1-propenyl)benzene,132.20528,682.61,0.365,465.57,CCCCCCCCCCCCC\C=C/CCCCCCCC
cis-1-methyl-4-(1-propenyl)benzene,132.20528,687.86,0.365,469.15,C\C=C/C=O
cis-1-methyl-4-isopropylcyclohexane,140.2688,667.0,0.274,445.15,CC1CCC(CC1)C(C)C
cis-1-propenylbenzene,118.1784,671.0,0.341,452.03,C1CC[C@@H]2CCCC[C@@H]2C1
"cis-2,3-dichloro-2-butene",124.99704,640.0,0.302,398.65,C/C(=C(\C)/Cl)/Cl
"cis-2,3-diphenyl-2-butene",208.30304,790.85,0.509,582.82,c1ccc(cc1)\C=C/c2ccccc2
"cis-2,cis-4-hexadiene",82.1454,539.46,0.256,353.15,CC(=C/C(O)=O)/C(O)=O
"cis-2,trans-4-hexadiene",82.1454,538.0,0.275,356.65,-
cis-2-butene,56.10752,435.58,0.203,276.87,C/C=C\C
cis-2-butenoic acid,86.09044,647.0,0.572,445.05,C/C=C\C(=O)O
cis-2-decene,140.2688,621.0,0.475,447.0,C/C=C/C=O
cis-2-dodecene,168.32256,663.0,0.569,491.0,C/C=C/C(O)=O
cis-2-fluoro-2-butene,74.0979832,467.83,0.227,300.15,CC(C)c1ccccc1
cis-2-heptene,98.18816,549.0,0.294,371.56,CC(C)c1ccccc1.O[O-]
cis-2-hexene,84.16128,513.0,0.272,342.03,N#CC#N
cis-2-methyl-2-butenoic acid,100.11732,676.0,0.389,458.15,N#CC#N
cis-2-methylcyclohexanol,114.18756,614.0,0.681,438.15,BrC#N
cis-2-methylcyclohexylamine,113.20284,622.0,0.386,426.65,ClC#N
cis-2-octene,112.21504,572.0,0.389,398.79,ClC#N
cis-2-pentene,70.1344,475.93,0.241,310.08,FC#N
cis-2-pentenoic acid,100.11732,676.0,0.415,458.15,NC(=N)NC#N
cis-2-undecene,154.29568,637.84,0.504,469.25,C1CCC1
cis-3-chloro-3-hexene,118.60604,583.61,0.341,390.15,C1CC=C1
cis-3-heptene,98.18816,545.0,0.295,368.9,C1CCCCCCCCC1
cis-3-hexene,84.16128,509.0,0.279,339.6,C1CCCCCCCCCCC1
cis-3-hexenyl formate,128.17108,592.33,0.432,447.69,C1CCCCCCCCCCCCCCCCCCC1
cis-3-methylcyclohexanol,114.18756,625.0,0.694,446.15,C1CCCCCCCCCCCCCCCC1
cis-3-methylcyclohexylamine,113.20284,622.0,0.386,426.15,C1CCCCCC1
cis-3-nonen-1-ol,142.24132,629.65,0.541,456.62,C1CCC=CCC1
cis-3-octene,112.21504,569.0,0.38,396.05,C1CCCCCCCCCCCCCCC1
cis-3-penten-1-yne,66.10264,505.0,0.189,317.75,C1CCCCC1
cis-3-pentenoic acid,100.11732,676.0,0.415,466.15,NCC1CCCCC1
cis-4-chloro-4-octene,146.6598,640.48,0.43,438.45,SC1CCCCC1
cis-4-methylcyclohexanol,114.18756,622.0,0.688,444.15,OC1CCCCC1
cis-4-methylcyclohexylamine,113.20284,622.0,0.386,426.65,O=C1CCCCC1
cis-4-octene,112.21504,568.0,0.385,395.69,ON=C1CCCCC1
cis-4-undecene,154.29568,637.84,0.504,465.75,C1CCC=CC1
cis-5-decene,140.2688,616.98,0.457,444.15,CC(=O)OC1CCCCC1
cis-5-undecene,154.29568,637.84,0.504,465.45,O=COC1CCCCC1
cis-9-tricosene,322.61824,802.72,0.742,612.15,O=C=NC1CCCCC1
cis-crotonaldehyde,70.09104,554.0,0.324,361.87,C1CCC(CC1)OOC2CCCCC2
cis-crotonitrile,67.09044,568.0,0.279,380.6,NC1CCCCC1
cis-decahydronaphthalene,138.25292,703.6,0.279,468.97,C1CCC(CC1)c2ccccc2
cis-dicyano-1-butene,106.12712,796.0,0.664,577.0,C1CCCCCCCCCCCCCCCCCC1
cis-stilbene,180.24928,784.0,0.476,554.0,C1CCCCCCCC1
citraconic acid,130.10024,829.0,0.927,607.0,C1CCCCCCCCCCCCCCCCC1
"citronellol, (±)",156.2682,656.59,0.612,497.15,C1CCCCCCC1
cobalt nitrosyl tricarbonyl,172.97054,567.68,0.178,320.0,C1CCCCCCCCCCCCCC1
cresol mixture,108.13992,702.68,0.465,470.15,C1CCCC1
crotonaldehyde,70.09104,550.5,0.296,377.15,OC(=O)CC1CCCC1
crotonic acid,86.09044,656.42,0.5,460.15,SC1CCCC1
cumene,120.19428,631.0,0.327,425.56,O=C1CCCC1
cumene hydroperoxide,152.19308,605.0,0.995,442.7,C1CC=CC1
cyanogen,52.03548,399.9,0.312,252.05,C1CCCCCCCCCCCCC1
cyanogen,52.03548,400.15,0.279,252.0,C1CCCCCCCCCCCC1
cyanogen bromide,105.92174,545.03,0.254,334.65,C1CCCCCCCCCC1
cyanogen chloride,61.47044,449.0,0.32,286.0,CC(C)c1ccc(C)cc1
cyanogen chloride,61.47044,449.0,0.32,286.0,C(#N)Cl
cyanogen fluoride,45.0161432,368.51,0.303,227.15,FC(F)(F)C(F)(F)C(F)(F)C(F)(F)F
cyanoguanidine,84.08072,834.0,0.692,581.0,C(#N)N=C(N)N
cyclobutane,56.10752,459.93,0.185,285.66,C[Si]1(C)O[Si](C)(C)O[Si](C)(C)O[Si](C)(C)O[Si](C)(C)O1
cyclobutene,54.09164,446.33,0.189,275.75,C[Si](C)(C)O[Si](C)(C)O[Si](C)(C)O[Si](C)(C)C
cyclodecane,140.2688,709.0,0.292,475.15,CCCCCCCCCC=O
cyclododecane,168.32256,747.23,0.313,512.15,CCCCCCCCCC
cycloeicosane,280.5376,842.81,0.424,621.15,CCCCCCCCCC#N
cycloheptadecane,238.45696,815.06,0.385,586.15,CCCCCCCCCC(O)=O
cycloheptane,98.18816,604.2,0.241,391.94,CCCCCCCCCCOC(C)=O
cycloheptene,96.17228,598.0,0.252,387.5,CCCCCCCCCCO
cyclohexadecane,224.43008,804.08,0.371,573.15,CCCCCCCCCCOC(=O)CCC
cyclohexane,84.16128,553.8,0.208,353.87,CCCCCCCCCCCl
cyclohexanemethanamine,113.20284,622.0,0.386,433.15,CCCCCCCCCCOC=O
cyclohexanethiol,116.22728,664.0,0.264,431.95,CCCCCCCCCCS
cyclohexanol,100.16068,650.1,0.369,434.0,CCCCCCCCCCOC(=O)CC
cyclohexanone,98.1448,553.0,0.306,428.9,CCCCCCCCCCN
cyclohexanone oxime,113.15948,715.0,0.462,481.15,CCCCCCCCCCc1ccccc1
cyclohexene,82.1454,560.4,0.212,356.12,CCCCCCCCCCC1CCCCC1
cyclohexyl acetate,142.19796,648.0,0.421,447.15,CCCCCCCCCCC1CCCC1
cyclohexyl formate,128.17108,645.0,0.368,435.65,CC(C)c1ccc2c(CC[C@H]3[C@@](C)(CCC[C@]23C)C(O)=O)c1
cyclohexyl isocyanate,125.17048,633.0,0.525,442.15,CC(C)c1ccc2c(CC[C@H]3[C@](C)(CN)CCC[C@]23C)c1
cyclohexyl peroxide,116.16008,685.0,0.751,490.0,CCCCCCOCCOCCO
cyclohexylamine,99.17596,615.0,0.36,407.65,C1CCC(CC1)N
cyclohexylbenzene,160.25904,744.0,0.378,513.27,C1CCC(CC1)C2=CC=CC=C2
cyclononadecane,266.51072,834.39,0.412,610.15,C1CCCCCCCCCCCCCCCCCC1
cyclononane,126.24192,682.0,0.281,451.55,CCCCCCCCOC(=O)CCCCC(=O)OCCCCCCCC
cyclooctadecane,252.48384,824.69,0.399,598.15,CCCCCOCCCCC
cyclooctane,112.21504,647.2,0.252,424.29,CCCNCCC
cyclooctene,110.19916,632.0,0.28,416.15,CCC(C)OC(C)CC
cyclopentadecane,210.4032,791.72,0.357,559.15,C1CCCCCCCCCCCCCC1
cyclopentadiene,66.10264,507.0,0.212,314.65,CCC(C)SC(C)CC
cyclopentane,70.1344,511.7,0.195,322.4,CCC(C)NC(C)CC
cyclopentaneacetic acid,128.17108,708.0,0.614,501.15,CC(C)(C)OOC(C)(C)C
cyclopentanethiol,102.2004,629.0,0.262,405.33,CC(C)(C)SSC(C)(C)C
cyclopentanone,84.11792,624.5,0.288,403.8,CC(C)(C)OC(C)(C)C
cyclopentene,68.11852,507.0,0.195,317.38,CC(C)(C)C(=O)C(C)(C)C
cyclopropane,42.08064,397.91,0.127,240.37,CC(C)(C)SC(C)(C)C
cyclopropanecarboxylic acid,86.09044,656.42,0.5,456.15,CC(C)(C)[S](=O)(=O)C(C)(C)C
cyclotetradecane,196.37632,777.91,0.343,544.15,CC(=O)CC(C)(C)O
cyclotridecane,182.34944,764.06,0.328,529.15,C=CCOC(=O)\C=C/C(=O)OCC=C
cycloundecane,154.29568,728.78,0.298,494.15,C1C2CC3C4CC5CC(C14)C(C2)C3C5
cymene,134.22116,664.65,0.378,449.5,o1c2ccccc2c3ccccc13
decaborane,122.22116,791.78,0.203,486.15,[nH]1c2ccccc2c3ccccc13
decafluorobutane,238.028032,386.35,0.372,271.15,s1c2ccccc2c3ccccc13
decahydronaphthalene; (cis+trans),138.25292,694.65,0.274,446.4,C(OCc1ccccc1)c2ccccc2
decamethylcyclopentasiloxane,370.7727,619.15,0.666,484.1,BB
decamethyltetrasiloxane,310.6884,599.4,0.673,467.15,C[Si](C)(C)O[Si](C)(C)O[Si](C)(C)O[Si](C)(C)C
decanal,156.2682,674.2,0.582,488.15,Brc1ccccc1Br
decane,142.28468,617.7,0.492,447.3,FC(F)(Br)Br
decanenitrile,153.2676,692.64,0.645,516.15,BrCBr
decanoic acid,172.2676,722.1,0.806,543.15,CCCCSSCCCC
decyl acetate,200.32136,678.0,0.75,517.15,CCCCOCCCC
decyl alcohol (mixed isomers),158.28408,629.0,0.793,472.78,CCCCOC(=O)\C=C/C(=O)OCCCC
decyl butanoate,228.37512,720.2,0.62,553.15,CCCCOC(=O)c1ccccc1C(=O)OCCCC
decyl chloride (mixed isomers),176.72944,679.88,0.547,499.02,CCCCO[S](=O)(=O)OCCCC
decyl formate,186.29448,672.0,0.712,506.0,CCCCSCCCC
decyl mercaptan,174.35068,696.0,0.587,512.35,CCCC[S](=O)(=O)CCCC
decyl propanoate,214.34824,707.6,0.835,555.06,CCCCNCCCC
decylamine,157.29936,663.0,0.666,493.65,ClC(Cl)C=O
decylbenzene,218.38244,753.0,0.68,571.04,OC(=O)C(Cl)Cl
decylcyclohexane,224.43008,751.25,0.663,570.75,ClC(Cl)C(Cl)=O
decylcyclopentane,210.4032,730.64,0.604,552.54,ClC(Cl)(Cl)c1ccccc1
dehydroabietic acid,314.468,828.0,0.915,645.0,CCC=C(Cl)Cl
dehydroabietylamine,285.47288,863.0,0.742,660.0,FC(F)(Cl)Cl
di(ethylene glycol) hexyl ether,190.28288,684.0,1.111,532.25,C[Si](C)(Cl)Cl
"di(propylene glycol) methyl ether acetate, isomers",190.23952,647.0,0.702,482.45,Cl[Si](Cl)(c1ccccc1)c2ccccc2
"di(propylene glycol) propyl ether, isomers",176.256,629.0,0.963,485.45,CC(Cl)Cl
"di(propylene glycol) tert-butyl ether, isomers",190.28288,667.0,0.997,515.0,ClC(Cl)=C
di-n-octyl adipate,370.57308,830.0,1.048,678.0,FC(Cl)Cl
di-pentyl ether,158.28408,622.0,0.601,459.9,ClCCl
di-propylamine,101.19184,550.0,0.45,382.0,ClC(Cl)[SiH2]c1ccccc1
di-sec-butyl ether,130.23032,559.0,0.432,394.2,CCCCC(Cl)Cl
"di-sec-butyl ether, (±)",130.23032,563.33,0.415,393.65,CCC(Cl)Cl
di-sec-butyl sulfide,146.29692,658.04,0.447,438.15,CC=C(Cl)Cl
di-sec-butylamine,129.2456,601.45,0.5,407.15,[SiH3]CC=C(Cl)Cl
di-t-butyl peroxide,146.22972,547.0,0.403,384.15,CC(C)(OOC(C)(C)c1ccccc1)c2ccccc2
di-tert-butyl disulfide,178.36292,704.16,0.529,513.34,C1CCC(CC1)SC2CCCCC2
di-tert-butyl ether,130.23032,550.0,0.346,380.4,C1CCC(CC1)NC2CCCCC2
di-tert-butyl ketone,142.24132,629.65,0.541,425.15,C1CCC(CC1)CC2CCCCC2
di-tert-butyl sulfide,146.29692,658.04,0.447,422.25,CCCCCCCCCCSSCCCCCCCCCC
di-tert-butylsulfone,178.29572,767.0,0.688,521.05,CCCCCCCCCCOCCCCCCCCCC
diacetone alcohol,116.16008,606.0,0.768,441.05,CCCCCCCCCCOC(=O)c1ccccc1C(=O)OCCCCCCCCCC
diallyl maleate,196.20288,693.0,0.789,520.0,CCCCCCCCCCSCCCCCCCCCC
diamantane,188.3128,791.0,0.163,529.0,CCCCCCCCCCNCCCCCCCCCC
dibenzofuran,168.19492,824.0,0.399,558.31,OCCNCCO
dibenzopyrrole,167.2102,899.0,0.494,627.86,CCOCOCC
dibenzothiophene,184.26152,897.0,0.398,604.61,CCOC(=O)OCC
dibenzyl ether,198.26456,777.0,0.591,561.45,CCSSCC
diborane,27.66964,289.8,0.125,180.65,CCOCC
diborane hydrobromide,106.5657,466.98,0.142,289.45,CCC(=O)CC
dibromobenzene,235.90576,761.0,0.293,493.65,CCOC(=O)\C=C/C(=O)OCC
dibromodifluoromethane,209.8158064,478.0,0.108,295.94,CCOC(=O)CC(=O)OCC
dibromomethane,173.83488,611.0,0.21,370.1,CCOC(=O)C(=O)OCC
dibutyl disulfide,178.36292,704.16,0.529,504.36,CCOC(=O)c1ccccc1C(=O)OCC
dibutyl ether,130.23032,584.1,0.448,414.15,CCOC(=O)CCC(=O)OCC
dibutyl maleate,228.2884,716.0,0.899,553.15,CCO[S](=O)(=O)OCC
dibutyl phthalate,278.34828,781.0,0.957,613.15,CCSCC
dibutyl sulfate,210.29452,814.0,0.345,525.0,CCO[S](=O)OCC
dibutyl sulfide,146.29692,650.0,0.394,455.15,CCNCC
dibutyl sulfone,178.29572,767.0,0.688,564.0,CCc1ccccc1CC
dibutylamine,129.2456,602.3,0.53,432.0,CCCCN(CC)CC
dichloroacetaldehyde,112.94268,555.0,0.344,362.0,C(=O)C(Cl)Cl
dichloroacetic acid,128.94208,686.0,0.555,467.15,CCCCCCCCCCN(CC)CC
dichloroacetyl chloride,147.38744,579.0,0.371,382.15,CCCCCCCCCCCCN(CC)CC
dichlorobenzyl chloride,195.4748,737.0,0.26,396.15,CCCCCCCCCCCCCCCCCCCCN(CC)CC
dichlorobutene,124.99704,640.0,0.302,400.83,OCCOCCO
dichlorodifluoromethane,120.9132064,384.95,0.18,243.36,CCCCOCCOCCOCCCC
dichlorodimethylsilane,129.06054,520.35,0.268,343.35,CCOCCOCCOCC
dichlorodiphenylsilane,253.2023,814.0,0.428,577.25,COCCOCCOC
dichloroethane,98.95916,542.0,0.266,343.52,CCOCCOCCOC(C)=O
dichloroethylene,96.94328,505.67,0.267,333.15,CCCCOCCOCCO
dichlorofluoromethane,102.9227432,451.58,0.205,282.05,CCCCOCCOCCOC(C)=O
dichloromethane,84.93228,510.0,0.199,312.9,CCCOCCOCCO
dichloromethylphenylsilane,191.13142,689.0,0.402,477.35,NCCNCCN
dichloropentane,141.0398,622.42,0.318,403.15,CCCCCCCCCCCCCCCCCCCCCN(CC)CC
dichloropropane,112.98604,568.62,0.249,369.75,CCCCCCCCCCCCCCCCCN(CC)CC
dichloropropylene,110.97016,577.0,0.206,364.52,CCCCCCCN(CC)CC
dichlorovinylmethylsilane,141.07154,544.1,0.293,366.95,CCCCCCCCCCCCCCCCN(CC)CC
dicumyl peroxide,270.37148,884.0,0.45,669.0,CCCCCCN(CC)CC
dicyclohexyl sulfide,198.37268,802.0,0.396,559.0,CCN(CC)C(C)C
dicyclohexylamine,181.32136,737.0,0.513,529.0,CCCCCCCCCCCCCCCCCCCN(CC)CC
dicyclohexylmethane,180.33356,749.48,0.385,525.95,CCCCCCCCCN(CC)CC
didecyl disulfide,346.68548,820.08,0.83,663.16,CCCCCCCCCCCCCCCCCCN(CC)CC
didecyl ether,298.55288,730.8,0.795,590.0,CCCCCCCCN(CC)CC
didecyl phthalate,446.67084,905.0,0.891,736.0,CCCCCCCCCCCCCCCN(CC)CC
didecyl sulfide,314.61948,832.33,0.795,645.0,CCCCCN(CC)CC
didecylamine,297.56816,782.3,0.949,632.15,CCCN(CC)CC
didodecylamine,353.67568,827.88,0.732,676.15,CCCCCCCCCCCCCCN(CC)CC
diethanolamine,105.13688,736.6,0.953,541.54,CCCCCCCCCCCCCN(CC)CC
diethoxymethane,104.14908,524.0,0.43,360.65,CCCCCCCCCCCN(CC)CC
diethyl carbonate,118.1326,576.0,0.486,399.95,FCF
diethyl disulfide,122.2554,642.0,0.347,427.13,[GeH3][GeH3]
diethyl ether,74.1228,466.7,0.281,307.58,OC(=O)COCC(O)=O
diethyl ketone,86.1338,560.9,0.345,375.14,CCCCCCCSSCCCCCCC
diethyl maleate,172.18088,680.0,0.666,498.15,CCCCCCCOCCCCCCC
diethyl malonate,160.16988,653.0,0.616,472.05,CCCCCCCOC(=O)c1ccccc1C(=O)OCCCCCCC
diethyl oxalate,146.143,618.0,0.808,458.61,CCCCCCCSCCCCCCC
diethyl phthalate,222.24076,757.0,0.761,567.15,CCCCCCCNCCCCCCC
diethyl succinate,174.19676,663.0,0.67,490.15,CCCCCCOC(=O)CCCCC(=O)OCCCCCC
diethyl sulfate,154.187,749.0,0.387,482.65,CCCCCCSSCCCCCC
diethyl sulfide,90.1894,557.15,0.29,365.25,CCCCCCOCCCCCC