name,molweight,critical temperature (K),acentric factor,boiling point (K),SMILES
"1,1-dibromooctane",272.02304,716.02,0.616,515.15,CCCCCCCCCCCCCC(Br)Br
"1,1-dibromopentacosane",510.48,901.35,0.75,736.15,CCCCCCCCCCCCCCCCCCCCCCC(Br)Br
"1,1-dibromopentadecane",370.2112,798.14,0.869,626.15,CCCCCCCCCCCCC(Br)Br
"1,1-dibromopentane",229.9424,665.55,0.48,453.15,CCCCCCCCCCC(Br)Br
"1,1-dibromopropane",201.88864,624.11,0.39,406.65,FC(F)(F)C(F)(Cl)Cl
"1,1-dibromotetracosane",496.45312,889.11,0.796,726.15,FC(F)C(F)(Cl)Cl
"1,1-dibromotetradecane",356.18432,787.47,0.843,612.15,FCC(F)(Cl)Cl
"1,1-dibromotricosane",482.42624,878.87,0.835,717.15,CC(F)(Cl)Cl
"1,1-dibromotridecane",342.15744,777.32,0.813,598.15,FC(F)C(Cl)Cl
"1,1-dibromoundecane",314.10368,754.56,0.741,567.15,CC(C)(C)C(Cl)Cl
"1,1-dichloro-1,2,2,2-tetrafluoroethane",170.9210128,418.55,0.253,276.17,CC=CC(Cl)Cl
"1,1-dichloro-1,2,2-trifluoroethane",152.9305496,481.32,0.287,303.0,FCC(Cl)Cl
"1,1-dichloro-1,2-difluoroethane",134.9400864,488.39,0.264,315.33,CC(C)=C(Cl)Cl
"1,1-dichloro-1-fluoroethane",116.9496232,478.85,0.221,305.15,CCC(C)C(Cl)Cl
"1,1-dichloro-2,2-difluoroethane",134.9400864,515.98,0.112,333.15,CC(C)C(Cl)Cl
"1,1-dichloro-2,2-dimethylpropane",141.0398,633.42,0.262,418.0,CC(C)(C)CC(Cl)Cl
"1,1-dichloro-2-butene",124.99704,640.0,0.302,399.15,CC(C)CC(Cl)Cl
"1,1-dichloro-2-fluoroethane",116.9496232,473.24,0.272,305.0,CCCC(Cl)Cl
"1,1-dichloro-2-methyl-1-propene",124.99704,640.0,0.302,381.65,CCCCCCCCCC(Cl)Cl
"1,1-dichloro-2-methylbutane",141.0398,595.96,0.323,400.0,CCCCCCCCCCCCCCCCCCCCCC(Cl)Cl
"1,1-dichloro-2-methylpropane",127.01292,576.09,0.278,378.15,CCCCCCCCCCCC(Cl)Cl
"1,1-dichloro-3,3-dimethylbutane",155.06668,633.09,0.397,421.1,CCCCCCCCCCCCCCCCCCCC(Cl)Cl
"1,1-dichloro-3-methylbutane",141.0398,600.06,0.323,402.75,CC(Cl)Cl
"1,1-dichlorobutane",127.01292,584.34,0.308,386.95,ClC(Cl)=C
"1,1-dichlorodecane",211.1742,704.32,0.57,520.15,CCCCCCCCCCCCCCCCCCCCC(Cl)Cl
"1,1-dichlorodocosane",379.49676,846.62,0.754,689.15,CCCCCCCCCCCCCCCCC(Cl)Cl
"1,1-dichlorododecane",239.22796,733.47,0.647,556.15,CCCCCCC(Cl)Cl
"1,1-dichloroeicosane",351.443,825.11,0.785,667.15,CCCCCCCCCCCCCCCC(Cl)Cl
"1,1-dichloroethane",98.95916,523.0,0.234,330.45,CCCCCC(Cl)Cl
"1,1-dichloroethylene",96.94328,482.0,0.272,304.71,CCCCCCCCCCCCCCCCCCC(Cl)Cl
"1,1-dichloroheneicosane",365.46988,835.53,0.773,678.15,CCCCCCCCC(Cl)Cl
"1,1-dichloroheptadecane",309.36236,792.59,0.776,630.15,CCCCCCCCCCCCCCCCCC(Cl)Cl
"1,1-dichloroheptane",169.09356,654.02,0.442,460.15,CCCCCCCC(Cl)Cl
"1,1-dichlorohexadecane",295.33548,782.08,0.76,617.15,CCCCCCCCCCCCCCC(Cl)Cl
"1,1-dichlorohexane",155.06668,633.09,0.397,437.15,CCCCC(Cl)Cl
"1,1-dichlorononadecane",337.41612,814.08,0.789,655.15,CCC(Cl)Cl
"1,1-dichlorononane",197.14732,688.79,0.528,501.15,CC=C(Cl)Cl
"1,1-dichlorooctadecane",323.38924,803.67,0.786,643.15,CCCCCCCCCCCCCC(Cl)Cl
"1,1-dichlorooctane",183.12044,672.06,0.485,481.15,CCCCCCCCCCCCCCCCCCCCCCC(Cl)Cl
"1,1-dichloropentadecane",281.3086,770.83,0.738,603.15,CCCCCCCCCCCCC(Cl)Cl
"1,1-dichloropentane",141.0398,610.24,0.352,412.95,CCCCCCCCCCC(Cl)Cl
"1,1-dichloropropane",112.98604,560.0,0.253,361.25,CCCC(C1CCCCC1)C2CCCCC2
"1,1-dichloropropene",110.97016,577.0,0.206,349.65,CCCCCCCCCC(C1CCCCC1)C2CCCCC2
"1,1-dichlorotetradecane",267.28172,758.8,0.712,588.15,CCCCCCCCCCCC(C1CCCCC1)C2CCCCC2
"1,1-dichlorotricosane",393.52364,857.18,0.728,699.15,CC(C1CCCCC1)C2CCCCC2
"1,1-dichlorotridecane",253.25484,745.93,0.681,572.15,CCCCCCC(C1CCCCC1)C2CCCCC2
"1,1-dichloroundecane",225.20108,720.08,0.61,539.15,CCCCCCCCCCCCCCCC(C1CCCCC1)C2CCCCC2
"1,1-dicyclohexylbutane",222.4142,768.14,0.512,566.12,CCCCCC(C1CCCCC1)C2CCCCC2
"1,1-dicyclohexyldecane",306.57548,812.16,0.702,640.15,CCCCCCCCC(C1CCCCC1)C2CCCCC2
"1,1-dicyclohexyldodecane",334.62924,825.63,0.729,660.15,CCCCCCCC(C1CCCCC1)C2CCCCC2
"1,1-dicyclohexylethane",194.36044,762.12,0.429,544.32,CCCCCCCCCCCCCCC(C1CCCCC1)C2CCCCC2
"1,1-dicyclohexylheptane",264.49484,790.2,0.623,605.15,CCCCC(C1CCCCC1)C2CCCCC2
"1,1-dicyclohexylhexadecane",390.73676,856.76,0.704,697.15,CCC(C1CCCCC1)C2CCCCC2
"1,1-dicyclohexylhexane",250.46796,783.63,0.589,593.15,CCCCCCCCCCCCCC(C1CCCCC1)C2CCCCC2
"1,1-dicyclohexylnonane",292.5486,805.09,0.68,629.15,CCCCCCCCCCCCC(C1CCCCC1)C2CCCCC2
"1,1-dicyclohexyloctane",278.52172,797.35,0.653,617.15,CCCCCCCCCCC(C1CCCCC1)C2CCCCC2
"1,1-dicyclohexylpentadecane",376.70988,848.27,0.721,688.15,CCC1(CC)CCCCC1
"1,1-dicyclohexylpentane",236.44108,776.31,0.551,580.15,CCC1(CC)CCCC1
"1,1-dicyclohexylpropane",208.38732,766.86,0.471,556.71,CC(C)(C)C(F)F
"1,1-dicyclohexyltetradecane",362.683,840.47,0.731,679.15,CCC(C)C(F)F
"1,1-dicyclohexyltridecane",348.65612,833.34,0.734,670.15,CC(C)C(F)F
"1,1-dicyclohexylundecane",320.60236,818.57,0.719,650.15,CC(C)CC(F)F
"1,1-diethylcyclohexane",140.2688,643.0,0.404,449.82,CCCC(F)F
"1,1-diethylcyclopentane",126.24192,624.67,0.321,423.65,CCCCCCCCCC(F)F
"1,1-difluoro-2,2-dimethylpropane",108.1312064,467.07,0.261,308.67,CCCCCCCCCCCCCCCCCCCCCC(F)F
"1,1-difluoro-2-methylbutane",108.1312064,463.41,0.321,311.46,CCCCCCCCCCCC(F)F
"1,1-difluoro-2-methylpropane",94.1043264,465.72,0.277,306.15,CCCCCCCCCCCCCCCCCCCC(F)F
"1,1-difluoro-3-methylbutane",108.1312064,463.41,0.321,311.46,CC(F)F
"1,1-difluorobutane",94.1043264,463.3,0.367,314.15,FC(F)=C
"1,1-difluorodecane",178.2656064,622.0,0.512,456.15,CCCCCCCCCCCCCCCCCCCCC(F)F
"1,1-difluorodocosane",346.5881664,766.65,0.748,624.15,CCCCCCCCCCCCCCCCC(F)F
"1,1-difluorododecane",206.3193664,656.9,0.557,492.15,CCCCCCC(F)F
"1,1-difluoroeicosane",318.5344064,754.0,0.687,603.15,CCCCCCCCCCCCCCCC(F)F
"1,1-difluoroethane",66.0505664,386.44,0.275,249.13,CCCCCC(F)F
"1,1-difluoroethylene",64.0346864,302.8,0.136,187.5,CCCCCCCCCCCCCCCCCCC(F)F
"1,1-difluoroheneicosane",332.5612864,756.52,0.768,614.15,CCCCCCCCC(F)F
"1,1-difluoroheptadecane",276.4537664,723.6,0.643,566.15,CCCCCCCCCCCCCCCCCC(F)F
"1,1-difluoroheptane",136.1849664,556.1,0.433,392.85,CCCCCCCC(F)F
"1,1-difluorohexadecane",262.4268864,712.1,0.633,553.15,CCCCCCCCCCCCCCC(F)F
"1,1-difluorohexane",122.1580864,529.0,0.401,368.15,CCCCC(F)F
"1,1-difluorononadecane",304.5075264,744.5,0.67,591.15,CCC(F)F
"1,1-difluorononane",164.2387264,602.2,0.483,436.15,CCCCCCCCCCCCCC(F)F
"1,1-difluorooctadecane",290.4806464,734.4,0.662,579.15,CCCCCCCCCCCCCCCCCCCCCCC(F)F
"1,1-difluorooctane",150.2118464,580.3,0.456,415.15,CCCCCCCCCCCCC(F)F
"1,1-difluoropentadecane",248.4000064,699.8,0.619,539.15,CCCCCCCCCCC(F)F
"1,1-difluoropentane",108.1312064,498.4,0.38,342.15,CC(C)(C)C(I)I
"1,1-difluoropropane",80.0774464,430.0,0.276,281.15,CCC(C)C(I)I
"1,1-difluorotetradecane",234.3731264,686.6,0.595,524.15,CC(C)C(I)I
"1,1-difluorotricosane",360.6150464,778.63,0.721,635.15,CC(C)CC(I)I
"1,1-difluorotridecane",220.3462464,672.3,0.586,509.15,CCCC(I)I
"1,1-difluoroundecane",192.2924864,640.2,0.541,475.15,CCCCCCCCCC(I)I
"1,1-diiodo-2,2-dimethylpropane",323.94334,759.04,0.242,496.41,CCCCCCCCCCCC(I)I
"1,1-diiodo-2-methylbutane",323.94334,750.13,0.302,499.2,CC(I)I
"1,1-diiodo-2-methylpropane",309.91646,732.32,0.258,476.32,CCCCCCCCCCCCCCCCC(I)I
"1,1-diiodo-3-methylbutane",323.94334,750.13,0.302,499.2,CCCCCCC(I)I
"1,1-diiodobutane",309.91646,726.41,0.287,476.76,CCCCCCCCCCCCCCCC(I)I
"1,1-diiododecane",394.07774,836.2,0.55,614.04,CCCCCC(I)I
"1,1-diiodododecane",422.1315,874.36,0.629,659.8,CCCCCCCCCCCCCCCCCC(I)I
"1,1-diiodoethane",281.8627,723.89,0.199,452.15,CCCCCCCCCCCCCCC(I)I
"1,1-diiodoheptadecane",492.2659,976.52,0.767,774.2,CCC(I)I
"1,1-diiodoheptane",351.9971,780.77,0.421,545.4,CCCCCCCCCCCCCC(I)I
"1,1-diiodohexadecane",478.23902,955.15,0.748,751.32,CCCCCCCCCCCCC(I)I
"1,1-diiodohexane",337.97022,762.6,0.376,522.52,CCCCCCCCCCC(I)I
"1,1-diiodononane",380.05086,817.53,0.508,591.16,CCC1CCC(C)(C)C1
"1,1-diiodooctadecane",506.29278,998.46,0.779,797.08,CCCC(C)(C)OC(C)=O
"1,1-diiodooctane",366.02398,799.06,0.465,568.28,CC1(C)CCC1
"1,1-diiodopentadecane",464.21214,934.29,0.725,728.44,CC1(C)CCCCC1
"1,1-diiodopentane",323.94334,744.5,0.332,499.64,CC1(C)CCCC1
"1,1-diiodopropane",295.88958,708.27,0.243,453.88,CC1(C)CC1
"1,1-diiodotetradecane",450.18526,913.9,0.697,705.56,CCCC(=O)OC(C)(C)CC
"1,1-diiodotridecane",436.15838,893.94,0.664,682.68,CCC(=O)OC(C)(C)CC
"1,1-diiodoundecane",408.10462,855.13,0.591,636.92,CCC(C)(C)N
"1,1-dimethyl-2-ethylcyclopentane",126.24192,607.98,0.296,411.15,CCC=C(c1ccccc1)c2ccccc2
"1,1-dimethyl-3-ethylcyclopentane",126.24192,602.06,0.296,407.15,CCCCCCCCC=C(c1ccccc1)c2ccccc2
"1,1-dimethylbutyl acetate",144.21384,618.0,0.54,426.15,CCCCCCCCCCC=C(c1ccccc1)c2ccccc2
"1,1-dimethylcyclobutane",84.16128,514.04,0.218,329.15,CCCCCC=C(c1ccccc1)c2ccccc2
"1,1-dimethylcyclohexane",112.21504,591.15,0.233,392.7,CCCCCCCCCCCCCCC=C(c1ccccc1)c2ccccc2
"1,1-dimethylcyclopentane",98.18816,547.0,0.272,361.0,CCCCC=C(c1ccccc1)c2ccccc2
"1,1-dimethylcyclopropane",70.1344,464.97,0.204,293.78,CCCCCCCC=C(c1ccccc1)c2ccccc2
"1,1-dimethylpropyl 3-methylbutanoate",172.2676,657.2,0.474,446.65,CCCCCCC=C(c1ccccc1)c2ccccc2
"1,1-dimethylpropyl butanoate",158.24072,603.0,0.901,460.31,CCCCCCCCCCCCCC=C(c1ccccc1)c2ccccc2
"1,1-dimethylpropyl formate",116.16008,570.0,0.351,385.65,CCCC=C(c1ccccc1)c2ccccc2
"1,1-dimethylpropyl propanoate",144.21384,589.0,0.749,437.43,CC=C(c1ccccc1)c2ccccc2
"1,1-dimethylpropylamine",87.16496,526.0,0.32,350.15,CCCCCCCCCCCCC=C(c1ccccc1)c2ccccc2
"1,1-diphenyl-1-butene",208.30304,790.85,0.509,567.85,CCCCCCCCCCCC=C(c1ccccc1)c2ccccc2
"1,1-diphenyl-1-decene",292.46432,843.78,0.733,655.15,CCCCCCCCCC=C(c1ccccc1)c2ccccc2
"1,1-diphenyl-1-dodecene",320.51808,856.93,0.78,677.15,CCCC(c1ccccc1)c2ccccc2
"1,1-diphenyl-1-heptene",250.38368,817.04,0.632,613.15,CCCCCCCCCC(c1ccccc1)c2ccccc2
"1,1-diphenyl-1-hexadecene",376.6256,881.36,0.8,713.15,CCCCCCCCCCCC(c1ccccc1)c2ccccc2
"1,1-diphenyl-1-hexene",236.3568,803.6,0.593,594.95,CC(c1ccccc1)c2ccccc2
"1,1-diphenyl-1-nonene",278.43744,835.6,0.703,642.15,C=C(c1ccccc1)c2ccccc2
"1,1-diphenyl-1-octene",264.41056,828.02,0.669,629.15,CCCCCCC(c1ccccc1)c2ccccc2
"1,1-diphenyl-1-pentadecene",362.59872,875.43,0.805,705.15,CCCCCCCCCCCCCCCC(c1ccccc1)c2ccccc2
"1,1-diphenyl-1-pentene",222.32992,797.63,0.552,581.91,CCCCCC(c1ccccc1)c2ccccc2
"1,1-diphenyl-1-propene",194.27616,796.49,0.465,562.15,CCCCCCCCC(c1ccccc1)c2ccccc2
"1,1-diphenyl-1-tetradecene",348.57184,868.99,0.804,696.15,CCCCCCCC(c1ccccc1)c2ccccc2
"1,1-diphenyl-1-tridecene",334.54496,863.24,0.795,687.15,CCCCCCCCCCCCCCC(c1ccccc1)c2ccccc2
"1,1-diphenyl-1-undecene",306.4912,850.03,0.759,666.15,CCCCC(c1ccccc1)c2ccccc2
"1,1-diphenylbutane",210.31892,778.3,0.452,557.44,CCC(c1ccccc1)c2ccccc2
"1,1-diphenyldecane",294.4802,822.0,0.695,634.15,CCCCCCCCCCCCCC(c1ccccc1)c2ccccc2
"1,1-diphenyldodecane",322.53396,832.8,0.83,659.15,CCCCCCCCCCCCC(c1ccccc1)c2ccccc2
"1,1-diphenylethane",182.26516,775.0,0.457,545.78,CCCCCCCCCCC(c1ccccc1)c2ccccc2
"1,1-diphenylethene",180.24928,791.64,0.431,550.25,OCCCCCCCCCCO
"1,1-diphenylheptane",252.39956,802.7,0.662,607.15,BrCCCCCCCCCCBr
"1,1-diphenylhexadecane",378.64148,850.1,0.958,691.15,ClCCCCCCCCCCCl
"1,1-diphenylhexane",238.37268,794.4,0.625,594.18,ICCCCCCCCCCI
"1,1-diphenylnonane",280.45332,816.5,0.731,630.15,BrCCCCCCCCCCCBr
"1,1-diphenyloctane",266.42644,810.0,0.698,619.15,BrCCCCCCCCCCCCBr
"1,1-diphenylpentadecane",364.6146,846.7,0.922,684.15,ClCCCCCCCCCCCCCl
"1,1-diphenylpentane",224.3458,786.4,0.587,581.04,BrCCCCCCCCCCCCCBr
"1,1-diphenylpropane",196.29204,774.3,0.508,556.37,BrCCCCCCCCCCCCCCBr
"1,1-diphenyltetradecane",350.58772,842.2,0.892,676.15,BrCCCCCCCCCCCCCCCCBr
"1,1-diphenyltridecane",336.56084,838.0,0.863,668.15,BrCCCCCCCCCCCCCCCCCBr
"1,1-diphenylundecane",308.50708,827.9,0.798,650.15,CCCCCCCCCCC(C1=CC=CC=C1)C2=CC=CC=C2
"1,10-decanediol",174.28348,747.0,0.919,574.0,BrCC(Br)(Br)CBr
"1,10-dibromodecane",300.0768,741.82,0.701,550.15,ClCC(Cl)(Cl)CCl
"1,10-dichlorodecane",211.1742,704.32,0.57,520.15,FCC(F)(F)CF
"1,10-diiododecane",394.07774,836.2,0.55,614.04,ICC(I)(I)CI
"1,11-dibromoundecane",314.10368,754.56,0.741,567.15,C(CCCCCBr)CCCCCBr
"1,12-dibromododecane",328.13056,766.37,0.779,583.15,C(CCCCCCBr)CCCCCBr
"1,12-dichlorododecane",239.22796,733.47,0.647,572.15,CCC(Br)(Br)CBr
"1,13-dibromotridecane",342.15744,777.32,0.813,598.15,CC(Br)(Br)CBr
"1,14-dibromotetradecane",356.18432,787.47,0.843,612.15,FC(F)(Cl)C(Cl)Cl
"1,16-dibromohexadecane",384.23808,808.08,0.889,639.15,CCC(Cl)(Cl)CCl
"1,17-dibromoheptadecane",398.26496,818.59,0.904,652.15,CC(Cl)(Cl)CCl
"1,19-nonanecanediol",300.5254,855.38,1.065,698.15,CCC(F)(F)CF
"1,2,2,3-tetrabromopropane",359.68076,782.3,0.587,523.15,CC(F)(F)CF
"1,2,2,3-tetrachloropropane",181.87556,662.36,0.31,437.15,CCC(I)(I)CI
"1,2,2,3-tetrafluoropropane",116.0583728,453.25,0.306,300.0,CC(I)(I)CI
"1,2,2,3-tetraiodopropane",547.68264,983.52,0.268,637.37,Clc1ccc(Cl)c(Cl)c1Cl
"1,2,2,cis-3-tetramethylcyclopentane",126.24192,609.74,0.271,411.15,CCc1ccc(CC)c(CC)c1CC
"1,2,2,trans-3-tetramethylcyclopentane",126.24192,609.74,0.271,411.15,CC1CCc2cc(C)ccc2C1(C)C
"1,2,2-tribromobutane",294.81158,727.5,0.495,486.95,Cc1ccc2c(CCCC2(C)C)c1
"1,2,2-tribromopropane",280.7847,709.19,0.451,464.15,CC1(C)CCCc2ccccc12
"1,2,2-trichloro-1,1-difluoroethane",169.3848464,529.0,0.288,345.05,CC1CCc2ccccc2C1C
"1,2,2-trichlorobutane",161.45768,663.82,0.3,440.0,CC1CC(C)c2ccccc2C1
"1,2,2-trichloropropane",147.4308,611.68,0.256,396.15,CC1CCC(C)c2ccccc12
"1,2,2-trifluorobutane",112.0947896,429.82,0.298,285.5,CC1CCCc2c(C)cccc12
"1,2,2-trifluoropropane",98.0679096,404.58,0.254,262.62,CC1(C)CCc2ccccc2C1
"1,2,2-triiodobutane",435.81299,867.15,0.269,567.11,CC1Cc2ccccc2CC1C
"1,2,2-triiodopropane",421.78611,852.51,0.225,544.23,CC1CCc2c(C)ccc(C)c2C1
"1,2,3,4-tetrachlorobenzene",215.89268,772.88,0.437,527.25,CC1CCc2c(C)cccc2C1
"1,2,3,4-tetraethylbenzene",190.32868,708.2,0.562,524.16,CC1CCc2cc(C)ccc2C1
"1,2,3,4-tetrahydro-1,1,2,6-tetramethylnaphthalene",188.3128,760.47,0.511,546.31,CC1CCc2ccc(C)cc2C1
"1,2,3,4-tetrahydro-1,1,6-trimethylnaphthalene",174.28592,749.21,0.468,513.15,CC1CCc2cccc(C)c2C1
"1,2,3,4-tetrahydro-1,1-dimethylnaphthalene",160.25904,737.62,0.424,494.15,Cc1ccc2CCCCc2c1C
"1,2,3,4-tetrahydro-1,2-dimethylnaphthalene",160.25904,737.62,0.424,508.15,Cc1cc(C)c2CCCCc2c1
"1,2,3,4-tetrahydro-1,3-dimethylnaphthalene",160.25904,737.62,0.424,507.15,Cc1ccc(C)c2CCCCc12
"1,2,3,4-tetrahydro-1,4-dimethylnaphthalene",160.25904,737.62,0.424,499.15,CC(C)Cc1cccc2CCCCc12
"1,2,3,4-tetrahydro-1,5-dimethylnaphthalene",160.25904,737.62,0.424,512.15,Cc1cccc2CCCCc12
"1,2,3,4-tetrahydro-2,2-dimethylnaphthalene",160.25904,737.62,0.424,503.15,Cc1cc2CCCCc2cc1C
"1,2,3,4-tetrahydro-2,3-dimethylnaphthalene",160.25904,737.62,0.424,506.74,CCc1ccc2c(c1)C(C)(C)CCC2(C)C
"1,2,3,4-tetrahydro-2,5,8-trimethylnaphthalene",174.28592,749.21,0.468,525.62,Cc1ccc2CCCCc2c1
"1,2,3,4-tetrahydro-2,5-dimethylnaphthalene",160.25904,737.62,0.424,509.15,C1CCc2ccccc2C1
"1,2,3,4-tetrahydro-2,6-dimethylnaphthalene",160.25904,737.62,0.424,513.15,Cc1ccc(C)c(C)c1C
"1,2,3,4-tetrahydro-2,7-dimethylnaphthalene",160.25904,737.62,0.424,510.15,CC1CCC(C)C(C)C1C
"1,2,3,4-tetrahydro-2,8-dimethylnaphthalene",160.25904,737.62,0.424,509.15,Cc1c(C)c(C)c2ccccc2c1C
"1,2,3,4-tetrahydro-5,6-dimethylnaphthalene",160.25904,737.62,0.424,525.15,Clc1cc(Cl)c(Cl)c(Cl)c1
"1,2,3,4-tetrahydro-5,7-dimethylnaphthalene",160.25904,737.62,0.424,526.15,CCc1cc(CC)c(CC)c(CC)c1
"1,2,3,4-tetrahydro-5,8-dimethylnaphthalene",160.25904,737.62,0.424,527.15,Cc1cc(C)c(C)c(C)c1
"1,2,3,4-tetrahydro-5-isobutylnaphthalene",188.3128,760.47,0.511,543.55,Cc1ccc2c(c1)cc(C)c(C)c2C
"1,2,3,4-tetrahydro-5-methylnaphthalene",146.23216,721.7,0.379,507.15,Oc1cccc(O)c1O
"1,2,3,4-tetrahydro-6,7-dimethylnaphthalene",160.25904,737.62,0.424,525.15,CC(Br)(CBr)CBr
"1,2,3,4-tetrahydro-6-ethyl-1,1,4,4-tetramethylnaphthalene",216.36656,780.71,0.594,580.65,CC(Br)C(Br)CBr
"1,2,3,4-tetrahydro-6-methylnaphthalene",146.23216,721.7,0.379,502.15,BrCC(Br)CBr
"1,2,3,4-tetrahydronaphthalene",132.20528,720.0,0.335,480.77,CC(Cl)C(C)(Cl)CCl
"1,2,3,4-tetramethylbenzene",134.22116,693.0,0.417,478.19,CC(Cl)(CCl)CCl
"1,2,3,4-tetramethylcyclohexane",140.2688,642.0,0.402,449.2,Cc1ccc(Cl)c(Cl)c1Cl
"1,2,3,4-tetramethylnaphthalene",184.28104,810.54,0.535,585.41,Cc1cc(Cl)c(Cl)c(Cl)c1
"1,2,3,5-tetrachlorobenzene",215.89268,761.15,0.437,519.25,Clc1cccc(Cl)c1Cl
"1,2,3,5-tetraethylbenzene",190.32868,708.0,0.594,522.0,CC(Cl)C(Cl)CCl
"1,2,3,5-tetramethylbenzene",134.22116,679.0,0.424,471.15,ClCC(Cl)CCl
"1,2,3,6-tetramethylnaphthalene",184.28104,810.54,0.535,585.41,CCc1cccc(CC)c1CC
"1,2,3-benzenetriol",126.11184,830.0,0.945,581.85,C1=CC(=C(C(=C1)O)O)O
"1,2,3-tribromo-2-methylpropane",294.81158,736.76,0.495,493.15,CC(F)C(F)CF
"1,2,3-tribromobutane",294.81158,730.78,0.531,493.15,FCC(F)CF
"1,2,3-tribromopropane",280.7847,743.76,0.52,495.31,CC(I)(CI)CI
"1,2,3-trichloro-2-methylbutane",175.48456,635.09,0.345,457.15,CC(I)C(I)CI
"1,2,3-trichloro-2-methylpropane",161.45768,659.52,0.3,437.15,ICC(I)CI
"1,2,3-trichloro-4-methylbenzene",195.4748,737.0,0.26,517.15,CCc1ccc(C)c(C)c1C
"1,2,3-trichloro-5-methylbenzene",195.4748,737.0,0.26,519.15,CCc1cc(C)c(C)c(C)c1
"1,2,3-trichlorobenzene",181.44792,734.0,0.426,491.75,Cc1cccc(C)c1C
"1,2,3-trichlorobutane",161.45768,656.99,0.332,439.15,CC1CCCC(C)C1C
"1,2,3-trichloropropane",147.4308,652.0,0.306,430.0,CC1CCC(=C1C)C
"1,2,3-triethylbenzene",162.27492,684.37,0.479,490.66,CC1C(=C(C)c2ccccc12)C
"1,2,3-triethylebenzene",162.27492,683.0,0.505,490.7,Cc1cc2ccccc2c(C)c1C
"1,2,3-trifluorobutane",112.0947896,429.75,0.33,287.85,Clc1cc(Cl)c(Cl)cc1Cl
"1,2,3-trifluoropropane",98.0679096,401.66,0.315,265.41,CCc1cc(CC)c(CC)cc1CC
"1,2,3-triiodo-2-methylpropane",435.81299,867.15,0.269,567.11,CC(C)c1cc(C(C)C)c(cc1C(C)C)C(C)C
"1,2,3-triiodobutane",435.81299,863.14,0.301,569.46,Cc1cc(C)c(C)cc1C
"1,2,3-triiodopropane",421.78611,841.02,0.286,547.02,Cc1ccc2c(C)c(C)cc(C)c2c1
"1,2,3-trimethyl-4-ethylbenzene",148.24804,699.56,0.441,493.55,Cc1ccc2c(C)cc(C)c(C)c2c1
"1,2,3-trimethyl-5-ethylbenzene",148.24804,693.04,0.441,488.95,Cc1cc(C)c2cccc(C)c2c1C
"1,2,3-trimethylbenzene",120.19428,664.5,0.367,449.27,CC(C)(C)c1ccc(c(c1)C(C)(C)C)C(C)(C)C
"1,2,3-trimethylcyclohexane",126.24192,621.31,0.29,415.15,BrCCC(Br)CBr
"1,2,3-trimethylcyclopentene",110.19916,602.71,0.315,394.75,Cc1cc(Cl)c(Cl)cc1Cl
"1,2,3-trimethylindene",158.24316,726.0,0.441,509.0,Clc1ccc(Cl)c(Cl)c1
"1,2,3-trimethylnaphthalene",170.25416,783.95,0.492,556.15,ClCCC(Cl)CCl
"1,2,4,5-tetrachlorobenzene",215.89268,759.69,0.437,518.25,CCc1ccc(CC)c(CC)c1
"1,2,4,5-tetraethylbenzene",190.32868,706.85,0.562,523.16,FCCC(F)CF
"1,2,4,5-tetraisopropylbenzene",246.4362,754.52,0.742,532.15,ICCC(I)CI
"1,2,4,5-tetramethylbenzene",134.22116,676.0,0.422,469.99,CC(C)c1ccc(C(C)C)c(c1)C(C)C
"1,2,4,6-tetramethylnaphthalene",184.28104,810.54,0.535,585.41,CCc1c(C)ccc(C)c1C
"1,2,4,7-tetramethylnaphthalene",184.28104,810.54,0.535,585.41,CCc1cc(C)c(C)cc1C
"1,2,4,8-tetramethylnaphthalene",184.28104,810.54,0.535,585.41,CC(C)c1cc(C)c(C)cc1C
"1,2,4-tri-tert-butylbenzene",246.4362,754.52,0.742,570.29,CCc1cc(C)cc(C)c1C
"1,2,4-tribromobutane",294.81158,717.58,0.565,488.15,Cc1ccc(C)c(C)c1
"1,2,4-trichloro-5-methylbenzene",195.4748,737.0,0.26,504.15,CC1=CC(=C(C=C1Cl)Cl)Cl
"1,2,4-trichlorobenzene",181.44792,725.0,0.358,486.15,Cc1cc(C)c2ccccc2c1C
"1,2,4-trichlorobutane",161.45768,652.82,0.362,440.0,Cc1ccc2c(C)c(C)ccc2c1C
"1,2,4-triethylbenzene",162.27492,684.0,0.501,491.15,Cc1ccc2c(C)ccc(C)c2c1C
"1,2,4-trifluorobutane",112.0947896,426.87,0.36,288.29,Cc1cc(Cl)cc(Cl)c1Cl
"1,2,4-triiodobutane",435.81299,856.37,0.331,569.9,CC(C)c1ccc(C)c2ccc(C)c(C)c12
"1,2,4-triisopropylbenzene",204.35556,741.0,0.638,517.15,Cc1ccc2c(C)cccc2c1C
"1,2,4-trimethyl-3-ethylbenzene",148.24804,694.17,0.441,489.75,Cc1cc(C)c2c(ccc(C)c2C)c1
"1,2,4-trimethyl-5-ethylbenzene",148.24804,689.07,0.441,486.15,Cc1ccc2c(ccc(C)c2C)c1
"1,2,4-trimethyl-5-isopropylbenzene",162.27492,697.15,0.437,494.15,Cc1ccc2ccc(C)c(C)c2c1
"1,2,4-trimethyl-6-ethylbenzene",148.24804,689.07,0.441,486.15,Cc1ccc2cccc(C)c2c1C
"1,2,4-trimethylbenzene",120.19428,649.1,0.379,442.53,CCSCCSCC
"1,2,4-trimethylcyclohexane, isomers",126.24192,621.31,0.29,415.05,CSCCSC