name,molweight,critical temperature (K),acentric factor,boiling point (K),SMILES
1-heneicosyne,292.5486,782.42,0.764,627.15,CCCCCCCCCCCCCCCCS
1-heptadecanethiol,272.53884,786.01,0.783,621.16,CCCCCCCCCCCCCCCCO
1-heptadecanol,256.47224,780.0,0.849,610.5,CCCCCCCCCCCCCCC=C
1-heptadecene,238.45696,736.0,0.753,573.48,CCCCCCCCCCCCCCCCC1=CCCC1
1-heptadecyne,236.44108,736.21,0.69,572.16,CCCCCCCCCCCCCCC#C
1-heptanal,114.18756,616.8,0.428,425.95,CCCCCCO
1-heptanol,116.20344,632.6,0.567,449.45,CCCCC=C
1-heptene,98.18816,537.3,0.344,366.79,CCCCCCC1CCCc2ccccc12
"1-heptyl-[1,2,3,4-tetrahydronaphthalene]",230.39344,788.41,0.633,594.15,CCCCCCC1=CCCC1
1-heptylcyclopentene,166.30668,680.78,0.49,492.15,CCCCCCc1cccc2ccccc12
1-heptylnaphthalene,226.36168,811.44,0.662,610.15,CCCCC#C
1-heptyne,96.17228,559.0,0.273,372.93,CC(=O)CO
1-hexadecanethiol,258.51196,774.68,0.763,607.16,CCC(C)(C)CI
1-hexadecanol,242.44536,770.0,0.816,597.23,CC(C)C(C)CI
1-hexadecene,224.43008,722.0,0.724,558.02,CCC(CC)CI
1-hexadecylcyclopentene,292.5486,775.66,0.76,619.15,CC(C)=CI
1-hexadecyne,222.4142,724.26,0.661,557.16,CCCCCCCCCCCCCCC#C
1-hexanol,102.17656,610.3,0.576,430.55,CCCCCCO
1-hexene,84.16128,504.0,0.286,336.63,CCCC(C)CI
"1-hexyl-[ 1,2,3,4-tetrahydronaphthalene]",216.36656,779.0,0.589,578.15,CC(C)CI
1-hexylcyclopentene,152.2798,665.48,0.447,473.15,CC(C)(C)CCI
1-hexylnaphthalene,212.3348,813.0,0.587,595.15,CC(C)=CCI
1-hexyne,82.1454,516.0,0.333,344.48,CCC(C)CCI
1-hydroxy-2-propanone,74.07944,596.0,0.774,418.65,CC(C)CCCI
"1-iodo-2,2-dimethylbutane",212.07369,594.3,0.739,429.38,C\C=C/CI
"1-iodo-2,3-dimethylbutane",212.07369,614.19,0.668,438.15,CC\C=C/CI
1-iodo-2-ethylbutane,212.07369,619.72,0.635,439.15,C/C=C/CI
1-iodo-2-methyl-1-propene,182.00405,608.34,0.217,388.1,CC/C=C/CI
1-iodo-2-methyl-cis-2-butene,196.03093,628.8,0.261,410.98,CCCCI
1-iodo-2-methyl-trans-2-butene,196.03093,628.8,0.261,410.98,CCCCCCCCCCI
1-iodo-2-methylpentane,212.07369,610.59,0.739,441.15,CCCCCCCCCCCCCCCCCCCCCCI
1-iodo-2-methylpropane,184.01993,563.95,0.648,393.55,CCCCCCCCCCCCI
"1-iodo-3,3-dimethylbutane",212.07369,607.49,0.705,436.15,CCCCCCCCCCCCCCCCCCCCI
1-iodo-3-methyl-2-butene,196.03093,628.8,0.261,410.98,CCCCCCCCCCCCCCCCCCCCCI
1-iodo-3-methylpentane,212.07369,618.9,0.739,447.15,CCCCCCCCCCCCCCCCCI
1-iodo-4-methylpentane,212.07369,617.65,0.739,446.25,CCCCCCCI
1-iodo-cis-2-butene,182.00405,630.09,0.242,405.15,CCCCCCCCCCCCCCCCI
1-iodo-cis-2-pentene,196.03093,624.39,0.286,411.1,CCCCCCI
1-iodo-trans-2-butene,182.00405,630.09,0.242,405.15,CCCCCCCCCCCCCCCCCCCI
1-iodo-trans-2-pentene,196.03093,624.39,0.286,411.1,CCCCCCCCCI
1-iodobutane,184.01993,621.0,0.209,403.68,CCCCCCCCCCCCCCCCCCI
1-iododecane,268.18121,700.35,0.932,536.85,CCCCCCCCI
1-iododocosane,436.50377,858.41,0.883,701.15,CCCCCCCCCCCCCCCCCCCCCCCCCI
1-iodododecane,296.23497,730.57,0.992,571.35,CCCCCCCCCCCCCCCI
1-iodoeicosane,408.45001,833.96,0.969,680.15,CCCI
1-iodoheneicosane,422.47689,846.44,0.93,691.15,CCCCCCCCCCCCCCCCCCCCCCCCI
1-iodoheptadecane,366.36937,796.86,1.036,644.15,CCCCCCCCCCCCCCI
1-iodoheptane,226.10057,646.56,0.816,477.1,CCCCCCCCCCCCCCCCCCCCCCCI
1-iodohexadecane,352.34249,783.25,1.042,630.15,CCCCCCCCCCCCCI
1-iodohexane,212.07369,667.0,0.398,454.48,CCCCCCCCCCCI
1-iodononadecane,394.42313,820.94,1.0,668.15,CC(C)Cc1cccc2ccccc12
1-iodononane,254.15433,683.84,0.896,518.15,CC(C)c1c(C)cc(C)c2ccc(C)cc12
1-iodooctadecane,380.39625,808.59,1.022,656.15,CC(C)c1cccc2ccccc12
1-iodooctane,240.12745,665.98,0.857,498.26,CCC(O)COC
1-iodopentacosane,478.58441,899.0,0.7,731.15,CCCCCCCCCCOC
1-iodopentadecane,338.31561,771.45,1.04,617.15,CCCCCCCOC
1-iodopropane,169.99305,593.0,0.258,375.6,CCC1(C)CCCCC1
1-iodotetracosane,464.55753,885.88,0.767,722.15,CCC1(C)CCCC1
1-iodotetradecane,324.28873,758.94,1.03,603.15,CCC1(C)CC1
1-iodotricosane,450.53065,872.37,0.828,712.15,CC(C)C1(C)CCCC1
1-iodotridecane,310.26185,744.41,1.014,587.15,CCCC1(C)CCCCC1
1-iodoundecane,282.20809,715.99,0.964,554.65,CCCC1(C)CCCC1
1-isobutylnaphthalene,184.28104,772.68,0.508,552.65,CCc1cccc(C)c1CC
"1-isopropyl-2,4,7-trimethylnaphthalene",212.3348,808.25,0.605,581.25,CCc1ccc(C)c(CC)c1
1-isopropylnaphthalene,170.25416,769.66,0.463,540.94,CC(C)c1ccc(C)c(c1)C(C)C
1-methoxy-2-butanol,104.14908,582.0,0.783,407.15,CCc1ccc(CC)c(C)c1
1-methoxydecane,172.31096,640.0,0.656,506.13,CCc1cccc(CC)c1C
1-methoxyheptane,130.23032,563.33,0.415,424.15,CC(=C)c1ccccc1C
1-methyl-1-ethylcyclohexane,126.24192,633.38,0.292,425.31,Cc1ccccc1CC=C
1-methyl-1-ethylcyclopentane,112.21504,582.0,0.33,394.67,CCCCc1ccccc1C
1-methyl-1-ethylcyclopropane,84.16128,507.94,0.248,329.92,CCCCC(CC)C(C)O
1-methyl-1-isopropylcyclopentane,126.24192,626.05,0.292,421.15,CCc1ccc2ccccc2c1C
1-methyl-1-propylcyclohexane,140.2688,667.0,0.274,445.15,CC(C)Cc1ccccc1C
1-methyl-1-propylcyclopentane,126.24192,618.03,0.321,419.15,CC(C)C1CCCCC1C
"1-methyl-2,3-diethylbenzene",148.24804,680.84,0.441,479.75,CC(C)C1CCCC1C
"1-methyl-2,4-diethylbenzene",148.24804,678.57,0.441,478.15,CCCCCC1CCCCC1C
"1-methyl-2,4-diisopropylbenzene",176.3018,714.0,0.529,497.15,CCCc1ccccc1C
"1-methyl-2,5-diethylbenzene",148.24804,681.55,0.441,480.25,CCCC1CCCCC1C
"1-methyl-2,6-diethyl benzene",148.24804,683.96,0.441,481.95,CCCc1ccc2ccccc2c1C
1-methyl-2-(1-methylethenyl)benzene,132.20528,647.11,0.39,445.35,CCC(C)c1ccccc1C
1-methyl-2-allylbenzene,132.20528,682.45,0.356,455.65,Cc1ccccc1C(C)(C)C
1-methyl-2-butylbenzene,148.24804,683.67,0.442,481.15,CCc1ccc(C)cc1CC
1-methyl-2-ethyl-1-hexanol,144.2572,615.67,0.814,462.0,CCc1cc(C)cc(CC)c1
1-methyl-2-ethylnaphthalene,170.25416,775.02,0.493,549.15,CC(C)c1cc(C)cc(c1)C(C)C
1-methyl-2-isobutylbenzene,148.24804,671.35,0.412,469.15,CC(=C)c1cccc(C)c1
1-methyl-2-isopropylcyclohexane,140.2688,667.0,0.274,444.15,CC(C)Oc1cccc(C)c1
1-methyl-2-isopropylcyclopentane,126.24192,610.99,0.302,416.15,CCCCc1cccc(C)c1
1-methyl-2-pentylcyclohexane,168.32256,691.81,0.456,490.65,CCCC(CC)CC(C)O
1-methyl-2-propylbenzene,134.22116,662.0,0.407,457.95,CCC1CCC(C)C1
1-methyl-2-propylcyclohexane,140.2688,667.0,0.274,449.15,CCc1cc(C)c2ccccc2c1
1-methyl-2-propylnaphthalene,184.28104,812.35,0.537,585.41,CC(C)Cc1cccc(C)c1
1-methyl-2-sec-butylbenzene,148.24804,671.35,0.412,469.15,CC1CCCC(C1)C(C)C
1-methyl-2-tert-butyl benzene,148.24804,687.73,0.351,473.6,CC(C)c1cc(C)c2ccccc2c1
"1-methyl-3,4-diethylbenzene",148.24804,676.58,0.441,476.75,CCCc1cccc(C)c1
"1-methyl-3,5-diethylbenzene",148.24804,672.46,0.441,473.85,CCCC1CCCC(C)C1
"1-methyl-3,5-diisopropylbenzene",176.3018,714.0,0.529,489.65,CCC(C)c1cccc(C)c1
1-methyl-3-(1-methylethenyl)benzene,132.20528,665.71,0.39,458.15,Cc1cccc(c1)C(C)(C)C
1-methyl-3-(1-methylethoxy)benzene,150.22056,670.0,0.445,469.65,CC(=C)c1ccc(C)cc1
1-methyl-3-butylbenzene,148.24804,679.41,0.442,478.15,CCCCc1ccc(C)cc1
1-methyl-3-ethyl-1-hexanol,144.2572,619.87,0.814,465.15,CCc1ccc(C)c2ccccc12
1-methyl-3-ethylcyclopentane,112.21504,585.27,0.276,394.2,CC(C)Cc1ccc(C)cc1
1-methyl-3-ethylnaphthalene,170.25416,770.78,0.493,546.15,CC1CCC(CC1)C(C)C
1-methyl-3-isobutylbenzene,148.24804,668.49,0.412,467.15,CC(C)c1ccc(C)c2ccccc12
1-methyl-3-isopropylcyclohexane,140.2688,667.0,0.274,439.65,CCCc1ccc(C)cc1
1-methyl-3-isopropylnaphthalene,184.28104,817.54,0.507,585.41,CCCC1CCC(C)CC1
1-methyl-3-propylbenzene,134.22116,654.0,0.413,454.95,CCC(C)c1ccc(C)cc1
1-methyl-3-propylcyclohexane,140.2688,667.0,0.274,437.65,Cc1ccc(cc1)C(C)(C)C
1-methyl-3-sec-butylbenzene,148.24804,668.49,0.412,467.15,CC1=CCC(CC1)C=C
1-methyl-3-tert-butylbenzene,148.24804,671.48,0.351,462.41,CCc1cccc2c(C)cccc12
1-methyl-4-(1-methylethenyl)benzene,132.20528,667.16,0.39,459.15,CCc1ccc2c(C)cccc2c1
1-methyl-4-butylbenzene,148.24804,682.25,0.442,480.15,CC(C)c1ccc2c(C)cccc2c1
1-methyl-4-ethylnaphthalene,170.25416,772.19,0.493,547.15,CCc1ccc2cccc(C)c2c1
1-methyl-4-isobutylbenzene,148.24804,671.35,0.412,469.15,CC(C)c1ccc2cccc(C)c2c1
1-methyl-4-isopropylcyclohexane,140.2688,667.0,0.274,443.85,CCc1cccc2cccc(C)c12
1-methyl-4-isopropylnaphthalene,184.28104,817.54,0.507,585.41,CC1CCCc2ccccc12
1-methyl-4-propylbenzene,134.22116,656.0,0.413,456.45,CC[C@H]1CCCC[C@H]1C
1-methyl-4-propylcyclohexane,140.2688,667.0,0.274,448.65,CC[C@H]1CCC[C@H]1C
1-methyl-4-sec-butylbenzene,148.24804,672.78,0.412,470.15,CC[C@H]1C[C@H]1C
1-methyl-4-tert-butylbenzene,148.24804,676.56,0.351,465.91,CC(C)[C@H]1CCC[C@H]1C
1-methyl-4-vinylcyclohexene,122.21016,626.0,0.345,425.15,CCC[C@H]1CCC[C@H]1C
1-methyl-5-ethylnaphthalene,170.25416,766.55,0.493,543.15,CC[C@@H]1CCC[C@H](C)C1
1-methyl-6-ethylnaphthalene,170.25416,770.78,0.493,546.15,CC[C@@H]1CC[C@H](C)C1
1-methyl-6-isopropylnaphthalene,184.28104,817.54,0.507,585.41,C[C@H]1CC[C@H](C1)C(C)C
1-methyl-7-ethylnaphthalene,170.25416,767.96,0.493,544.15,CCC[C@@H]1CC[C@H](C)C1
1-methyl-7-isopropylnaphthalene,184.28104,773.88,0.507,554.15,CC[C@H]1CC[C@@H](C)CC1
1-methyl-8-ethylnaphthalene,170.25416,773.61,0.493,548.15,-
"1-methyl-[1,2,3,4-tetrahydronaphthalene]",146.23216,722.13,0.379,493.74,CC[C@@H]1CCCC[C@H]1C
1-methyl-cis-2-ethylcyclohexane,126.24192,632.03,0.305,429.25,CC[C@@H]1CCC[C@H]1C
1-methyl-cis-2-ethylcyclopentane,112.21504,597.34,0.29,401.2,CC[C@@H]1C[C@H]1C
1-methyl-cis-2-ethylcyclopropane,84.16128,518.53,0.26,340.16,CC(C)[C@@H]1CCC[C@H]1C
1-methyl-cis-2-isopropylcyclopentane,126.24192,619.02,0.305,421.15,CCC[C@@H]1CCC[C@H]1C
1-methyl-cis-2-propylcyclopentane,126.24192,620.88,0.334,425.73,CC[C@H]1CCC[C@H](C)C1
1-methyl-cis-3-ethylcyclohexane,126.24192,620.1,0.305,421.15,CC[C@H]1CC[C@H](C)C1
1-methyl-cis-3-ethylcyclopentane,112.21504,586.99,0.29,394.25,C[C@H]1CC[C@@H](C1)C(C)C
1-methyl-cis-3-isopropylcyclopentane,126.24192,610.2,0.305,415.15,CCC[C@H]1CC[C@H](C)C1
1-methyl-cis-3-propylcyclopentane,126.24192,614.2,0.334,421.15,CC[C@@H]1CC[C@@H](C)CC1
1-methyl-cis-4-ethylcyclohexane,126.24192,624.52,0.305,424.15,CCC1CCC(CC1)C
1-methyl-cis-decahydronaphthalene,152.2798,752.51,0.331,516.15,CC1(CC=CC=C1)c2ccccc2
1-methyl-trans-2-ethylcyclohexane,126.24192,625.55,0.305,424.85,CCCC(C)OC(C)=O
1-methyl-trans-2-ethylcyclopentane,112.21504,587.14,0.29,394.35,CCCC(C)OC(=O)CCC
1-methyl-trans-2-ethylcyclopropane,84.16128,505.8,0.26,331.81,CCCC(C)OC=O
1-methyl-trans-2-isopropylcyclopentane,126.24192,608.73,0.305,414.15,CCCC(C)OC(=O)CC
1-methyl-trans-2-propylcyclopentane,126.24192,611.82,0.334,419.52,CCCC(C)N
1-methyl-trans-3-ethylcyclohexane,126.24192,624.52,0.305,424.15,CC1(O)CCCCC1
1-methyl-trans-3-ethylcyclopentane,112.21504,586.99,0.29,394.25,CC1=CCCCC1
1-methyl-trans-3-isopropylcyclopentane,126.24192,610.2,0.305,415.15,CC1=CCCC1
1-methyl-trans-3-propylcyclopentane,126.24192,614.2,0.334,421.15,CC1C=Cc2ccccc12
1-methyl-trans-4-ethylcyclohexane,126.24192,620.1,0.305,421.15,Cc1nccc2ccccc12
1-methyl-trans-decahydronaphthalene,152.2798,740.84,0.331,508.15,Cc1cccc2ccccc12
1-methylbiphenyl,168.23828,775.8,0.417,528.45,-
1-methylbutyl acetate,130.18696,579.0,0.459,406.15,CCC(C)(C)C[N+]([O-])=O
1-methylbutyl butanoate,158.24072,610.0,0.845,455.15,CC(C)C(C)C[N+]([O-])=O
1-methylbutyl formate,116.16008,574.0,0.401,393.76,CCC(CC)C[N+]([O-])=O
1-methylbutyl propanoate,144.21384,597.0,0.691,440.22,CCCC(C)C[N+]([O-])=O
1-methylbutylamine,87.16496,534.9,0.419,364.85,CC(C)C[N+]([O-])=O
1-methylcyclohexanol,114.18756,686.0,0.221,441.15,CC(C)(C)CC[N+]([O-])=O
1-methylcyclohexene,96.17228,590.94,0.241,383.45,CCC(C)CC[N+]([O-])=O
1-methylcyclopentene,82.1454,542.0,0.232,348.95,CC(C)CCC[N+]([O-])=O
1-methylindene,130.1894,703.0,0.335,471.65,CCCC[N+]([O-])=O
1-methylisoquinoline,143.1882,778.59,0.428,521.15,CCCCCCCCCC[N+]([O-])=O
1-methylnaphthalene,142.2004,772.0,0.342,517.83,CCCCCCCCCCCC[N+]([O-])=O
"1-methylpentyl butanoate, (S)",172.2676,657.2,0.474,473.73,CCCCCCCCCCCCCCCCCCCC[N+]([O-])=O
"1-nitro-2,2-dimethylbutane",131.17476,638.11,0.458,442.15,CCCCCCCCCCCCCCCCC[N+]([O-])=O
"1-nitro-2,3-dimethylbutane",131.17476,643.56,0.491,449.15,CCCCCCC[N+]([O-])=O
1-nitro-2-ethylbutane,131.17476,633.09,0.523,445.0,CCCCCCCCCCCCCCCC[N+]([O-])=O
1-nitro-2-methylpentane,131.17476,634.51,0.523,446.0,CCCCCC[N+]([O-])=O
1-nitro-2-methylpropane,103.121,609.0,0.415,414.87,CCCCCCCCCCCCCCCCCCC[N+]([O-])=O
"1-nitro-3,3-dimethylbutane",131.17476,642.23,0.458,445.0,CCCCCCCCC[N+]([O-])=O
1-nitro-3-methylpentane,131.17476,634.51,0.523,446.0,CCCCCCCCCCCCCCCCCC[N+]([O-])=O
1-nitro-4-methyl pentane,131.17476,634.51,0.523,446.0,CCCCCCCC[N+]([O-])=O
1-nitrobutane,103.121,623.0,0.455,425.92,CCCCCCCCCCCCCCC[N+]([O-])=O
1-nitrodecane,187.28228,716.97,0.725,539.15,CCC[N+]([O-])=O
1-nitrododecane,215.33604,740.64,0.796,570.15,CCCCCCCCCCCCCC[N+]([O-])=O
1-nitroeicosane,327.55108,821.1,0.871,667.15,CCCCCCCCCCCCC[N+]([O-])=O
1-nitroheptadecane,285.47044,792.11,0.893,635.15,CCCCCCCCCCC[N+]([O-])=O
1-nitroheptane,145.20164,675.3,0.599,486.15,CCCCCCCCCCCCCCCCCCCS
1-nitrohexadecane,271.44356,782.0,0.886,623.15,CCCCCCCCCCCCCCCCCCCO
1-nitrohexane,131.17476,659.32,0.555,466.65,CCCCCCCCCCCCCCCCCC=C
1-nitrononadecane,313.5242,810.4,0.886,656.15,CCCCCCCCCCCCCCCCCC#C
1-nitrononane,173.2554,703.7,0.685,522.15,CCCCCCCCC=O
1-nitrooctadecane,299.49732,801.56,0.893,646.15,CCCCCCCCCO
1-nitrooctane,159.22852,690.75,0.643,505.15,CCCCCCC(O)C=C
1-nitropentadecane,257.41668,772.46,0.872,611.15,CCCCCCCC=C
1-nitropropane,89.09412,605.0,0.413,404.33,CCCCCCCCCC1CCCc2ccccc12
1-nitrotetradecane,243.3898,762.2,0.851,598.15,CCCCCCCCCC1=CCCC1
1-nitrotridecane,229.36292,751.18,0.826,584.15,CCCCCCCCCc1cccc2ccccc12
1-nitroundecane,201.30916,729.26,0.762,555.15,CCCCCCCC#C
1-nonadecanethiol,300.5926,805.29,0.807,645.16,CCCCCCCCCCCCCCCCCCS
1-nonadecanol,284.526,799.0,0.908,634.6,CCCCCCCCCCCCCCCCCCO
1-nonadecene,266.51072,760.0,0.841,602.17,CCCCCCCCCCCCCCCCC=C
1-nonadecyne,264.49484,758.94,0.735,600.16,CCCCCCCCCCCCCCCCC#C
1-nonanal,142.24132,658.0,0.512,468.15,CCCCCCCC=O
1-nonanol,144.2572,670.7,0.6,486.25,CCCCCCCCO
1-nonen-3-ol,142.24132,629.65,0.541,466.65,CCCCCCC=C
1-nonene,126.24192,594.0,0.41,420.02,CCCCCCCCC1CCCc2ccccc12
"1-nonyl-[1,2,3,4-tetrahydronaphthalene]",258.4472,805.45,0.702,621.15,CCCCCCCCC1=CCCC1
1-nonylcyclopentene,194.36044,707.91,0.573,527.15,CCCCCCCCc1cccc2ccccc12
1-nonylnaphthalene,254.41544,849.0,0.617,639.0,CCCCCCC#C
1-nonyne,124.22604,598.05,0.471,423.85,CCCCCCCCCCCCCCCCCCCCCCCC#C
1-octadecanethiol,286.56572,795.36,0.798,633.16,CCCCCCCCCCCCCCCS
1-octadecanol,270.49912,790.0,0.889,624.0,CCCCCCCCCCCCCCCO
1-octadecene,252.48384,748.0,0.794,587.97,CCCCCCCCCCCCCC=C
1-octadecyne,250.46796,747.33,0.715,586.16,CCCCCCCCCCCCCCCC1=CCCC1
1-octanal,128.21444,638.9,0.464,447.15,CCCCCCCCCCCCCC#C
1-octanol,130.23032,652.5,0.583,468.35,CCCC=C
1-octene,112.21504,567.0,0.392,394.44,CC#CC=C
"1-octyl-[1,2,3,4-tetrahydronaphthalene]",244.42032,797.31,0.669,608.15,C=CCC#C
1-octylcyclopentene,180.33356,694.89,0.532,510.15,CCCCCC1CCCc2ccccc12
1-octylnaphthalene,240.38856,821.26,0.699,625.15,CCCCCC1=CCCC1
1-octyne,110.19916,585.0,0.323,399.35,CCCCCc1cccc2ccccc12
1-pentacosyne,348.65612,825.22,0.725,672.15,CCCC#C
1-pentadecanethiol,244.48508,764.77,0.737,593.86,CC(C)(C)Cc1ccccc1
1-pentadecanol,228.41848,759.0,0.78,583.4,CCC(C)Cc1ccccc1
1-pentadecene,210.4032,708.0,0.684,541.61,CC(O)Cc1ccccc1
1-pentadecylcyclopentene,278.52172,767.17,0.748,608.15,CC(C)CCc1ccccc1
1-pentadecyne,208.38732,711.41,0.628,541.16,CC(O)c1ccccc1
1-pentene,70.1344,464.8,0.236,303.11,CCCCCCCCCCCCCCCCc1ccccc1
1-pentene-3-yne,66.10264,520.0,0.252,332.4,c1ccc(cc1)C2C=Cc3ccccc23
1-pentene-4-yne,66.10264,503.0,0.179,315.65,c1ccc(cc1)c2cccc3ccccc23
"1-pentyl-[1,2,3,4-tetrahydronaphthalene]",202.33968,767.6,0.554,562.78,CCCCCCCCCCCCCCc1ccccc1
1-pentylcyclopentene,138.25292,647.47,0.403,452.15,OCCN1CCNCC1
1-pentylnaphthalene,198.30792,803.0,0.535,579.15,CC=Cc1ccccc1
1-pentyne,68.11852,481.2,0.29,313.33,CCCOCC(C)O
"1-phenyl-2,2-dimethylpropane",148.24804,667.65,0.351,459.15,CCCC1CCCc2ccccc12
1-phenyl-2-methylbutane,148.24804,673.65,0.413,470.15,CCCC1=CCCC1
1-phenyl-2-propanol,136.19368,678.0,0.75,493.15,CCCc1cccc2ccccc12
1-phenyl-3-methylbutane,148.24804,676.37,0.413,472.05,CCC(C)c1cccc2ccccc12
1-phenylethanol,122.1668,668.0,0.706,477.15,CC(O)COC(C)(C)C
1-phenylhexadecane,302.54372,818.0,0.9,651.15,Cc1cc(C)cc(c1)C(C)(C)C
1-phenylindene,192.26028,865.0,0.47,610.0,CC(C)(C)c1cccc2ccccc12
1-phenylnaphthalene,204.27128,849.0,0.531,607.15,CCCCCCCCCCCCCCCCCCCCCCC=C
1-phenyltetradecane,274.48996,800.0,0.813,627.15,CCCCCCCCCCCCCCCCCCCCCCC#C
1-piperazineethanol,130.19004,711.0,0.833,519.15,CCCCCCCCCCCCCCS
1-propenylbenzene,118.1784,656.71,0.321,448.65,CCCCCCCCCCCCCCO
1-propoxy-2-propanol,118.17596,573.0,0.8,421.85,CCCCCCCCCCCCC=C
"1-propyl-[1,2,3,4-tetrahydronaphthalene]",174.28592,745.97,0.468,529.55,CCCCCCCCCCCCCCC1=CCCC1
1-propylcyclopentene,110.19916,602.71,0.315,404.35,CCCCCCCCCCCCC#C
1-propylnaphthalene,170.25416,782.0,0.455,545.96,CCCCCCCCCCCCCCCCCCCCCC=C
1-sec-butylnaphthalene,184.28104,818.49,0.508,575.0,CCCCCCCCCCCCCCCCCCCCCC#C
1-tert-butoxy-2-propanol,132.20284,567.0,0.774,417.15,CCCCCCCCCCCCC=O
"1-tert-butyl-3,5-dimethylbenzene",162.27492,697.15,0.437,480.15,CCCCCCCCCCCCCS
1-tert-butylnaphthalene,184.28104,781.33,0.445,551.45,CCCCCCCCCCCCCO
1-tetracosene,336.64512,814.11,0.721,663.15,CCCCCCCCCCCC=C
1-tetracosyne,334.62924,815.11,0.746,662.15,CCCCCCCCCCCCCC1=CCCC1
1-tetradecanethiol,230.4582,753.8,0.707,579.36,CCCCCCCCCCCC#C
1-tetradecanol,214.3916,747.0,0.743,568.8,CCCCCCCCCCCS
1-tetradecene,196.37632,692.0,0.645,524.25,CCCCCCCCCCCO
1-tetradecylcyclopentene,264.49484,757.98,0.73,596.15,CCCCCCCCCC=C
1-tetradecyne,194.36044,689.9,0.665,525.15,CCCCCCCCCCCC1=CCCC1
1-tricosene,322.61824,802.72,0.742,652.15,CCCCCCCCCCCc1cccc2ccccc12
1-tricosyne,320.60236,804.42,0.759,651.15,CCCCCCCCCC#C
1-tridecanal,198.34884,724.0,0.716,540.15,CCCCCCCCCC(=O)CCCCCCCCC
1-tridecanethiol,216.43132,742.13,0.673,563.96,BrCCCCCCCCCC=C
1-tridecanol,200.36472,734.0,0.712,553.6,CCCCCCCCCCC(CCCCCCCCCC)c1ccccc1
1-tridecene,182.34944,675.0,0.606,505.93,CC(C)CCCCCCCCCCCO
1-tridecylcyclopentene,250.46796,749.34,0.706,584.15,CCCCC(C)CCCCCCCCCCCCC(O)=O
1-tridecyne,180.33356,684.11,0.553,507.16,CC(C)CCCCCCCCCCCCCCCC(O)=O
1-undecanethiol,188.37756,710.0,0.639,530.55,[nH]1cccn1
1-undecanol,172.31096,703.6,0.625,518.15,CCCCCCCCCCCO
1-undecene,154.29568,639.0,0.517,465.82,CCCCCCCCCC=C
1-undecylcyclopentene,222.4142,729.7,0.646,557.15,CCCCCCCCCCCC1=CCCC1
1-undecylnaphthalene,282.4692,846.34,0.787,664.15,CCCCCCCCCCCC1=CC=CC2=CC=CC=C21
1-undecyne,152.2798,650.99,0.47,468.16,CCCCCCCCCC#C
10-nonadecanone,282.51012,766.51,0.843,619.65,CCCCCCCCCC(=O)CCCCCCCCC
11-bromo-1-undecene,233.19174,699.36,0.621,517.15,C=CCCCCCCCCCBr
11-phenylheneicosane,372.67812,860.93,0.733,702.15,S=C1Nc2ccccc2S1
12-methyl-1-tridecanol,214.3916,736.2,0.686,552.35,Cc1ccccc1c2ccccc2C
14-methyloctadecanoic acid,298.50952,810.0,1.07,690.66,SCCOCCS
17-methyloctadecanoic acid,298.50952,810.0,1.07,690.66,CCC(C)(C)C(C)(C)C(C)(C)C
1H-pyrazole,68.07824,734.0,0.287,460.15,CC(C)(C)C(C)(C)C(C)(C)C
"2',2""-dimethyldiphenylmethane",196.29204,792.88,0.521,570.15,CC(C)C(C)C(C)(C)C(C)(C)C
"2',3""-dimethyldiphenylmethane",196.29204,790.1,0.521,568.15,CCCC(C)C(C)(C)C(C)(C)C
"2',3'-dimethyldiphenylmethane",196.29204,792.88,0.521,570.15,CCC(C)C(C)(C)C(C)(C)C
"2',4""-dimethyldiphenylmethane",196.29204,794.27,0.521,571.15,CC(C)C(C)(C)C(C)(C)C
"2',4'-dimethyldiphenylmethane",196.29204,791.49,0.521,569.15,CC(C)(C)CC(C)(C)C(C)(C)C
"2',5'-dimethyldiphenylmethane",196.29204,790.1,0.521,568.15,CCC(C)CC(C)(C)C(C)(C)C
"2',6'-dimethyldiphenylmethane",196.29204,792.88,0.521,570.15,CC(C)CC(C)(C)C(C)(C)C
2(3H)-benzothiazolethione,167.25544,749.0,0.332,496.15,CC(C)CCC(C)(C)C(C)(C)C
"2,2'-dimethylbiphenyl",182.26516,761.6,0.477,531.15,CC(C)(C)C(C)(C)CO
"2,2'-oxydiethanethiol",138.2548,720.0,0.419,490.15,CCC(CC)C(C)(C)C(C)(C)C
"2,2,3,3,4,4-hexamethylhexane",170.33844,691.43,0.318,489.15,CC(C)(C)C(C)(C)C
"2,2,3,3,4,4-hexamethylpentane",156.31156,672.56,0.275,467.15,CCCCC(C)(C)C(C)(C)C
"2,2,3,3,4,5-hexamethylhexane",170.33844,662.99,0.347,472.15,CCCC(C)(C)C(C)(C)C
"2,2,3,3,4-pentamethylheptane",170.33844,660.06,0.375,473.15,CCCCCC(C)(C)C(C)(C)C
"2,2,3,3,4-pentamethylhexane",156.31156,648.89,0.333,457.15,CCC(C)(C)C(C)(C)C