name,molweight,critical temperature (K),acentric factor,boiling point (K),SMILES
"3,trans-6-dimethylcyclohexene",110.19916,597.92,0.26,395.8,CCCC(N)CC
3-(1-methylethoxy)-1-propene,100.16068,536.0,0.38,356.65,CC(Br)C=C
3-(chloromethyl)heptane,148.67568,642.41,0.462,445.15,CCC(Br)C=C
3-(dimethylamino)-1-propanol,103.16436,626.41,0.841,436.65,BrCC=C
3-(methylamino)propylamine,88.15276,612.33,0.533,413.15,CCC(=C)CBr
3-(methylthio)propanal,104.17292,650.0,0.417,438.65,CC(Br)C(C)=C
3-amino-1-butanol,89.13748,571.82,0.711,426.84,CC(=C)CBr
3-amino-1-propanol,75.1106,649.0,0.827,460.65,CCC(Br)C(C)C
3-amino-2-butanol,89.13748,571.82,0.711,433.15,CCC(Br)=CC
3-amino-2-methylpentane,101.19184,596.83,0.419,408.33,CC(C)(Br)C=C
3-amino-3-methylpentane,101.19184,586.93,0.387,398.45,CCC(C)(Br)CC
3-aminoheptane,115.21872,565.35,0.409,414.15,CCCCC(CC)N
3-aminohexane,101.19184,592.91,0.451,408.77,CCCC(CC)N
3-bromo-1-butene,135.00358,586.28,0.292,378.15,CCCC(Br)CC
3-bromo-1-pentene,149.03046,580.26,0.337,383.15,CCC(Br)CC
3-bromo-1-propene,120.9767,540.2,0.273,343.16,CCC=Cc1ccccc1
3-bromo-2-ethyl-1-propene,149.03046,569.33,0.341,376.52,CCCCc1cccc(O)c1
3-bromo-2-methyl-1-butene,149.03046,573.71,0.311,376.08,CC(Cl)C=C
3-bromo-2-methyl-1-propene,135.00358,569.83,0.297,368.15,CCC(Cl)C=C
3-bromo-2-methylpentane,165.07322,594.59,0.373,401.96,ClCC=C
3-bromo-2-pentene,149.03046,586.22,0.334,389.15,CCCC(C)(Cl)C(C)(C)C
3-bromo-3-methyl-1-butene,149.03046,575.7,0.274,373.41,CCCC(C)(Cl)C(C)C
3-bromo-3-methylpentane,165.07322,595.92,0.341,403.15,CCC(C)(Cl)C(C)C
3-bromo-cis-2-pentene,149.03046,581.59,0.331,383.15,ClCC(=C)CCl
3-bromo-trans-2-pentene,149.03046,581.59,0.331,383.15,CCC(=C)CCl
3-bromohexane,165.07322,608.18,0.404,414.45,CC(Cl)C(C)=C
3-bromopentane,151.04634,587.16,0.359,391.75,CCC(Cl)C(C)=C
3-butenylbenzene,132.20528,682.45,0.356,450.15,CC(=C)CCl
3-butylphenol,150.22056,742.23,0.542,520.15,CCC(Cl)C(C)C
3-chloro-1-butene,90.55228,524.61,0.233,337.15,CCC(Cl)=CC
3-chloro-1-pentene,104.57916,556.39,0.277,366.15,CCC(Cl)(CC)C(C)(C)C
3-chloro-1-propene,76.5254,514.15,0.148,318.3,CCCCC(Cl)(CC)CC
"3-chloro-2,2,3-trimethylhexane",162.70256,661.88,0.505,470.76,CCC(Cl)(CC)CC
"3-chloro-2,3-dimethylhexane",148.67568,642.41,0.462,442.45,CC(C)(Cl)C=C
"3-chloro-2,3-dimethylpentane",134.6488,621.08,0.418,401.15,CCCCC(C)(Cl)CC
3-chloro-2-(chloromethyl)-1-propene,124.99704,640.0,0.302,411.15,CCCC(C)(Cl)CC
3-chloro-2-ethyl-1-propene,104.57916,550.96,0.281,363.15,CCCCCC(C)(Cl)CC
3-chloro-2-methyl-1-butene,104.57916,561.72,0.252,366.95,CCC(C)(Cl)CC
3-chloro-2-methyl-1-pentene,118.60604,583.61,0.341,394.15,CCC(C(=C)C)Cl
3-chloro-2-methyl-1-propene,90.55228,536.47,0.237,345.35,CC(=C)CCl
3-chloro-2-methylpentane,120.62192,571.28,0.314,385.0,ClC(Cl)c1cccc(Cl)c1
3-chloro-2-pentene,104.57916,561.69,0.275,364.15,CCCCC(Cl)CC
"3-chloro-3-ethyl-2,2-dimethylpentane",162.70256,661.88,0.505,470.76,CCCC(Cl)CC
3-chloro-3-ethylheptane,162.70256,661.88,0.505,470.76,O=CC1CCC=CC1
3-chloro-3-ethylpentane,134.6488,621.08,0.418,416.65,CCCCCCCCCCCCCCCCCC(CC)C1CCCCC1
3-chloro-3-methyl-1-butene,104.57916,546.4,0.217,353.15,CCCCCCCC(O)CC
3-chloro-3-methylheptane,148.67568,642.41,0.462,442.45,CCCCCCCC(=O)CC
3-chloro-3-methylhexane,134.6488,621.08,0.418,408.15,CCCCCCC#CCC
3-chloro-3-methyloctane,162.70256,661.88,0.505,470.76,CN(C)CCCN
3-chloro-3-methylpentane,120.62192,582.19,0.283,389.15,CCCCCCCCCC(O)CC
3-chloro-cis-2-pentene,104.57916,553.1,0.271,363.15,CCCCCCCCCC(=O)CC
3-chloro-trans-2-pentene,104.57916,553.1,0.271,363.15,CCCCCCCCC#CCC
3-chlorobenzal chloride,195.4748,737.0,0.26,483.65,CCCCCCCCCCCCCCCCC#CCC
3-chloroheptane,134.6488,621.08,0.418,417.15,CCOCCCO
3-chlorohexane,120.62192,583.1,0.343,396.15,CCc1cccc(SC)c1
3-cyclohexene-1-carboxaldehyde,110.1558,655.0,0.364,437.15,CCCCC(CC)CCO
3-cyclohexyleicosane,364.69888,853.38,0.708,689.65,CCCC(CC)CCO
3-decanol,158.28408,632.85,0.883,483.0,CCCC(CC)C=C
3-decanone,156.2682,656.59,0.612,476.15,CCCCCC(CC)CCO
3-decyne,138.25292,643.32,0.412,452.45,CCC(CC)CCO
3-dimethylamino-1-propylamine,102.17964,637.67,0.591,406.65,CCC(CC)C=C
3-dodecanol,186.33784,712.9,0.635,512.53,CCC(CC)C#C
3-dodecanone,184.32196,687.46,0.691,519.25,CCC(C)(CC)C(C)(C)C
3-dodecyne,166.30668,677.19,0.498,492.55,CCC(C(C)C)C(C)(C)C
3-eicosyne,278.52172,758.74,0.744,603.15,CCCC(CC)C(C)(C)C
3-ethoxy-1-propanol,104.14908,582.0,0.783,420.0,CCC(C)(C(C)C)C(C)C
3-ethyl-(1-thiaethyl)-benzene,152.26028,737.59,0.416,505.76,CCCC(C)(CC)C(C)C
3-ethyl-1-heptanol,144.2572,636.71,0.846,480.15,CCC(C)C(CC)C(C)C
3-ethyl-1-hexanol,130.23032,608.64,0.806,453.0,CCC(CC(C)C)C(C)C
3-ethyl-1-hexene,112.21504,556.24,0.357,383.45,CCc1cc(C)sc1C
3-ethyl-1-octanol,158.28408,631.54,0.883,482.0,CCCCC(CC)C(C)O
3-ethyl-1-pentanol,116.20344,598.5,0.764,439.15,CCCC(CC)C(C)O
3-ethyl-1-pentene,98.18816,530.0,0.302,357.26,CCCCC(CC)C(C)C
3-ethyl-1-pentyne,96.17228,540.76,0.27,357.15,CCCC(CC)C(C)C
"3-ethyl-2,2,3-trimethylpentane",142.28468,646.0,0.311,442.66,CCC(CC)C(C)C
"3-ethyl-2,2,4-trimethylpentane",142.28468,615.3,0.346,428.46,CCC(CC)C(C)O
"3-ethyl-2,2-dimethylhexane",142.28468,611.7,0.369,429.26,CCC(CC)C(C)=O
"3-ethyl-2,3,4-trimethylpentane",142.28468,642.3,0.329,442.6,CCC(CC)=CC
"3-ethyl-2,3-dimethylhexane",142.28468,626.8,0.359,436.86,CCC(CC)SC
"3-ethyl-2,4-dimethylhexane",142.28468,616.1,0.385,433.26,CCC(C)C(C)(CC)CC
"3-ethyl-2,5-dimethylhexane",142.28468,603.5,0.397,427.26,CCCCC(O)(CC)CC
"3-ethyl-2,5-dimethylthiophene",140.24928,669.0,0.379,456.15,CCCC(O)(CC)CC
3-ethyl-2-heptanol,144.2572,606.35,0.814,455.0,CCC=C(CC)CC
3-ethyl-2-hexanol,130.23032,595.91,0.773,441.15,CCC(C)(CC)C#C
3-ethyl-2-methylheptane,142.28468,610.9,0.415,434.36,CCC(C)(CC)C(C)=O
3-ethyl-2-methylhexane,128.2578,588.1,0.378,411.16,CCCCC(C)(CC)CC
3-ethyl-2-methylpentane,114.23092,567.0,0.329,388.8,CCCC(C)(CC)CC
3-ethyl-2-pentanol,116.20344,582.81,0.731,425.15,CCCC(C)(CC)CC(O)=O
3-ethyl-2-pentanone,114.18756,590.99,0.451,411.15,CCCCCC(O)(CC)CC
3-ethyl-2-pentene,98.18816,547.66,0.307,369.16,CCC(O)(CC)CC
3-ethyl-2-thiapentane,118.24316,598.38,0.351,405.02,CCCC(C(C)C)C(CC)CC
"3-ethyl-3,4-dimethylhexane",142.28468,624.5,0.359,435.26,CCC(C(C)C)C(C)=O
3-ethyl-3-heptanol,144.2572,609.87,0.78,455.35,CCCC(C)C(CC)CC
3-ethyl-3-hexanol,130.23032,586.95,0.738,432.15,CCC(C)C(CC)CC
3-ethyl-3-hexene,112.21504,565.63,0.351,389.15,CCc1cnccc1C
3-ethyl-3-methyl-1-pentyne,110.19916,594.1,0.359,374.65,CCCCC(O)C(CC)CC
3-ethyl-3-methyl-2-pentanone,128.21444,624.0,0.528,426.6,CCCC(CCC)C(CC)CC
3-ethyl-3-methylheptane,142.28468,620.0,0.389,436.96,CCC(C)CC(CC)CC
3-ethyl-3-methylhexane,128.2578,597.5,0.352,413.76,CCC(O)(CC)CCC(C)C
3-ethyl-3-methylhexanoic acid,158.24072,703.0,0.831,456.91,CCCC(C)(CC)CC(=O)O
3-ethyl-3-octanol,158.28408,624.3,0.819,472.15,CCc1cccc(C)c1C
3-ethyl-3-pentanol,116.20344,573.17,0.695,415.65,CCC(CC)(CC)O
3-ethyl-4-isopropylheptane,170.33844,637.53,0.491,468.15,CCc1cccc(c1)c2ccccc2
3-ethyl-4-methyl-2-pentanone,128.21444,624.0,0.528,427.65,CCC1CCCC=C1
3-ethyl-4-methylheptane,142.28468,615.5,0.409,436.16,CCC1CCC=C1
3-ethyl-4-methylhexane,128.2578,593.7,0.372,413.56,CCCCCCCC(CC)CC
3-ethyl-4-methylpyridine,121.18208,653.0,0.376,471.15,CCc1cccc(Cc2ccccc2)c1
3-ethyl-4-octanol,158.28408,613.33,0.852,466.0,CCc1cocc1
3-ethyl-4-propylheptane,170.33844,635.31,0.519,469.15,CCCCC(CC)CC
3-ethyl-5-methylheptane,142.28468,606.6,0.416,431.36,CCCC(CC)CC
3-ethyl-6-methyl-3-heptanol,158.28408,629.0,0.793,472.78,CCCC(CC)CC(O)=O
3-ethyl-cis-2-hexene,112.21504,572.89,0.351,394.15,CCCCCCC(CC)CC
3-ethyl-o-xylene,134.22116,680.0,0.362,467.11,CCCCCC(CC)CC
3-ethyl-trans-2-hexene,112.21504,572.89,0.351,394.15,CCC(CC)CC
3-ethylbiphenyl,182.26516,801.0,0.482,559.11,CCc1cccnc1
3-ethylcyclohexene,110.19916,609.58,0.285,404.76,CCc1cnc2ccccc2c1
3-ethylcyclopentene,96.17228,565.35,0.27,370.92,CCC1CCOC1
3-ethyldecane,170.33844,648.96,0.548,481.85,CCC1CCCSC1
3-ethyldiphenylmethane,196.29204,786.18,0.522,564.69,CCC1CCSC1
3-ethylfuran,96.12892,556.26,0.333,365.0,CCc1cscc1
3-ethylheptane,128.2578,590.0,0.408,416.35,CC(F)C=C
3-ethylhexane,114.23092,565.5,0.361,391.69,CCC(F)C=C
3-ethylhexanoic acid,144.21384,692.0,0.779,436.35,FCC=C
3-ethylnonane,156.31156,630.13,0.507,461.15,CCC(=C)CF
3-ethyloctane,142.28468,613.6,0.446,439.66,CC(F)C(C)=C
3-ethylpentane,100.20404,540.6,0.309,366.62,CC(=C)CF
3-ethylpyridine,107.1552,657.7,0.388,440.15,CCC(F)C(C)C
3-ethylquinoline,157.21508,775.67,0.498,539.15,CC(C)(F)C=C
3-ethyltetrahydrofuran,100.16068,590.7,0.308,389.15,CCC(C)(F)CC
3-ethylthiacyclohexane,130.25416,646.42,0.288,426.94,-
3-ethylthiacyclopentane,116.22728,671.54,0.273,438.15,-
3-ethylthiophene,112.19552,626.7,0.298,409.15,CCCC(F)CC
3-fluoro-1-butene,74.0979832,445.34,0.232,286.43,CCCCCCCCCCCCCC#CCC
3-fluoro-1-pentene,88.1248632,469.68,0.276,309.31,CCCCC(O)CC
3-fluoro-1-propene,60.0711032,394.72,0.218,270.15,C=CCF
3-fluoro-2-ethyl-1-propene,88.1248632,469.43,0.281,309.63,CCCCC(=O)CC
3-fluoro-2-methyl-1-butene,88.1248632,472.95,0.251,309.19,CCCC=CCC
3-fluoro-2-methyl-1-propene,74.0979832,473.42,0.237,305.0,CC(=C)CF
3-fluoro-2-methylpentane,104.1676232,511.81,0.313,345.15,CCCC#CCC
3-fluoro-3-methyl-1-butene,88.1248632,473.89,0.216,306.52,CCCCCCCCCCCCCC(O)CC
3-fluoro-3-methylpentane,104.1676232,508.31,0.282,340.0,CCCCCCCCCCCCCC(=O)CC
3-fluoro-cis-2-pentene,88.1248632,482.63,0.271,317.11,CCCCCCCCCCCCC#CCC
3-fluoro-trans-2-pentene,88.1248632,482.63,0.271,317.11,CCCC(S)CC
3-fluorohexane,104.1676232,523.73,0.342,356.05,CCCC(O)CC
3-heptadecyne,236.44108,739.6,0.68,573.15,CCCCCCCCCCCCCC#CCC
3-heptanol,116.20344,585.83,0.764,429.85,CCCC(=O)CC
"3-heptanol, (S)",116.20344,587.2,0.709,430.15,CCC#CCC
3-heptanone,114.18756,606.6,0.408,420.55,CC(CO)C=O
3-heptene,98.18816,537.61,0.294,369.0,CC(O)CC=O
3-heptene (mixed isomers),98.18816,537.61,0.294,363.69,CC(I)C=C
3-heptyne,96.17228,574.59,0.279,380.31,CCC(I)C=C
3-hexadecanol,242.44536,757.6,0.756,568.53,ICC=C
3-hexadecanone,240.42948,736.51,0.81,569.98,CCC(=C)CI
3-hexadecyne,222.4142,729.15,0.65,559.15,CC(I)C(C)=C
3-hexanethiol,118.24316,615.0,0.353,407.26,CC(=C)CI
3-hexanol,102.17656,579.3,0.558,408.55,CCC(I)C(C)C
"3-hexanol, (R)",102.17656,581.8,0.582,408.15,CC(C)(I)C=C
3-hexanone,100.16068,582.82,0.38,396.65,CCC(C)(I)CC
3-hexyne,82.1454,544.0,0.218,354.35,CCC#CCC
3-hydroxy-2-methyl propionaldehyde,88.10632,615.0,0.793,440.0,-
3-hydroxybutanal,88.10632,620.0,0.797,444.0,CCCCC(I)CC
3-iodo-1-butene,182.00405,625.42,0.223,400.0,CCCC(I)CC
3-iodo-1-pentene,196.03093,615.43,0.267,403.18,CC(C)Cc1cccc(O)c1
3-iodo-1-propene,167.97717,595.81,0.202,375.16,CCCCC(CCO)C(C)C
3-iodo-2-ethyl-1-propene,196.03093,614.94,0.271,403.5,CCCC(C(C)C)C(C)C
3-iodo-2-methyl-1-butene,196.03093,630.52,0.242,410.0,CC(C)c1cccc(O)c1
3-iodo-2-methyl-1-propene,182.00405,594.11,0.227,380.62,CC(C)c1cccnc1
3-iodo-2-methylpentane,212.07369,597.44,0.705,428.94,CC(C)c1cscc1
3-iodo-3-methyl-1-butene,196.03093,622.45,0.207,400.39,OC(=O)CCS
3-iodo-3-methylpentane,212.07369,597.98,0.668,426.59,COC(C)CCO
3-iodo-cis-2-pentene,196.03093,628.8,0.261,410.98,COCCCO
3-iodo-trans-2-pentene,196.03093,628.8,0.261,410.98,COCC=C
3-iodoheptane,226.10057,646.56,0.816,477.1,COCC(C)=C
3-iodohexane,212.07369,610.59,0.739,441.15,COC(C)(C)CCO
3-isobutylphenol,150.22056,733.0,0.51,510.0,COCCC#N
3-isopropyl-1-heptanol,158.28408,642.75,0.852,488.35,CC1CC[S](=O)(=O)C1
3-isopropyl-2-methylhexane,142.28468,623.4,0.391,439.86,CSc1cccc(C)c1
3-isopropylphenol,136.19368,734.54,0.464,501.15,CCSc1cccc(C)c1
3-isopropylpyridine,121.18208,653.0,0.376,450.65,CC(c1ccccc1)c2cccc(C)c2
3-isopropylthiophene,126.2224,652.61,0.312,430.15,C[C](C)=[C]=[CH2]
3-mercaptopropionic acid,106.14544,729.0,0.589,501.0,Cc1cccc(CCc2ccccc2)c1
3-methoxy-1-butanol,104.14908,582.0,0.783,430.15,CC[C](C)=[C]=[CH2]
3-methoxy-1-propanol,90.1222,569.0,0.759,430.7,CC(C)(O)CCO
3-methoxy-1-propene,72.10692,475.15,0.266,317.15,CC=C(C)C=C
3-methoxy-2-methyl-1-propene,86.1338,505.58,0.323,340.15,CC(C=C)C=C
3-methoxy-3-methylbutanol,118.17596,600.0,0.817,447.15,CC(C)(CCO)OC
3-methoxypropionitrile,85.10572,638.0,0.465,439.0,COCCC#N
3-methyl sulfolane,134.1992,817.0,0.419,549.15,CC(C)CCS
3-methyl-(1-thiaethyl)-benzene,138.2334,718.95,0.371,482.88,CC(C)CCO
3-methyl-(1-thiapropyl)-benzene,152.26028,717.74,0.416,492.15,CC(C)C=C
"3-methyl-1,1-diphenylethane",196.29204,786.32,0.491,561.15,CC(C)C#C
"3-methyl-1,2-butadiene",68.11852,490.0,0.187,314.0,CCCCC(C)CCO
"3-methyl-1,2-diphenylethane",196.29204,792.39,0.522,569.15,CCCCC(C)C=C
"3-methyl-1,2-pentadiene",82.1454,528.84,0.239,343.15,CCCC(C)CCN
"3-methyl-1,3-butanediol",104.14908,632.01,1.103,472.15,CCCC(C)CCO
"3-methyl-1,3-pentadiene",82.1454,526.51,0.25,350.15,C/C=C(\C)/C=C
"3-methyl-1,4-pentadiene",82.1454,497.0,0.247,326.0,CCCC(C)C=C
"3-methyl-1,cis-3-pentadiene",82.1454,536.73,0.241,350.15,CCCC(C)C#C
"3-methyl-1,trans-3-pentadiene",82.1454,536.73,0.241,350.15,CC1CCC(=C1)C(C)C
3-methyl-1-butanethiol,104.21628,604.0,0.22,391.5,CCCCCCC(C)CCO
3-methyl-1-butanol,88.14968,577.2,0.589,404.35,CCCCCC(C)CCO
3-methyl-1-butene,70.1344,452.7,0.21,293.21,CCC(C)CCO
3-methyl-1-butyne,68.11852,463.2,0.308,302.15,CC(C)C#C
3-methyl-1-heptanol,130.23032,616.9,0.806,459.15,CCC(C)C=C
3-methyl-1-heptene,112.21504,557.26,0.357,384.15,CCC(C)C#C
3-methyl-1-hexanamine,115.21872,565.35,0.409,422.15,CC1=CCc2ccccc12
3-methyl-1-hexanol,116.20344,606.68,0.764,445.15,CCC(C)(O)C(C)O
"3-methyl-1-hexanol, (±)",116.20344,587.2,0.709,443.15,CC1=CC(=O)OC1=O
3-methyl-1-hexene,98.18816,528.0,0.306,357.05,CC(C)C(C)S
3-methyl-1-hexyne,96.17228,542.27,0.27,358.15,CC(C)C(C)O
3-methyl-1-isopropylcyclopentene,124.22604,626.53,0.359,411.65,-
3-methyl-1-nonanol,158.28408,638.09,0.883,487.0,CC(C)=CC(O)=O
3-methyl-1-octanol,144.2572,627.23,0.846,473.0,CCC(CO)C(C)C
3-methyl-1-pentanol,102.17656,588.0,0.723,425.55,CCC(=C)C(C)C
"3-methyl-1-pentanol, (±)",102.17656,581.8,0.582,426.15,CCCC(C)C(CC)CO
3-methyl-1-pentene,84.16128,495.0,0.264,327.33,CCC(C)C(CC)CO
3-methyl-1-pentyne,82.1454,512.82,0.226,330.85,CCC(C)C(=C)CC
3-methyl-1H-indene,130.1894,693.5,0.332,471.15,CCc1sccc1C
"3-methyl-2,3-pentanediol",118.17596,670.5,1.105,505.76,CCCCC(C)C(C)O
"3-methyl-2,5-furandione",112.08496,721.0,0.57,486.15,CCCCC(C)C(C)=O
3-methyl-2-butanethiol,104.21628,579.0,0.283,382.91,CCCC(C)C(C)O
3-methyl-2-butanol,88.14968,556.1,0.512,384.65,CCCC(C)C(C)=O
"3-methyl-2-butanol, (±)",88.14968,562.34,0.577,386.05,CC(C)C(CO)C(C)C
3-methyl-2-butenoic acid,100.11732,676.0,0.389,468.15,CC(C)C(=C)C(C)C
3-methyl-2-ethyl-1-butanol,116.20344,596.52,0.731,435.15,CC(C)c1cc2ccccc2cc1C
3-methyl-2-ethyl-1-butene,98.18816,535.82,0.288,359.52,CC(C)c1c(C)cccc1O
3-methyl-2-ethyl-1-hexanol,144.2572,621.0,0.814,466.15,CCCCCCC(C)C(C)O
3-methyl-2-ethyl-1-pentanol,130.23032,607.86,0.773,450.0,CCCCCC(C)C(C)O
3-methyl-2-ethyl-1-pentene,112.21504,561.5,0.332,384.65,CCCCCC(C)C(C)=O
3-methyl-2-ethylthiophene,126.2224,652.0,0.342,434.15,CCCCCC(C)=CC
3-methyl-2-heptanol,130.23032,593.34,0.773,439.25,CCC(C)C(C)O
3-methyl-2-heptanone,128.21444,624.0,0.528,437.15,CCC(C)C(C)=O
3-methyl-2-hexanol,116.20344,582.81,0.731,425.15,CCCC(C)C(C)O
3-methyl-2-hexanone,114.18756,593.86,0.451,413.15,CCCC(C)C(=O)C
3-methyl-2-isopropyl-1-butanol,130.23032,606.01,0.741,446.15,CCCc1cc2ccccc2cc1C
3-methyl-2-isopropyl-1-butene,112.21504,554.89,0.303,377.15,CCCc1c(C)cccc1O
3-methyl-2-isopropylnaphthalene,184.28104,817.54,0.507,585.41,CCCC(C)SC
3-methyl-2-isopropylphenol,150.22056,719.35,0.509,501.15,CCC(C)SC
3-methyl-2-nonanol,158.28408,640.97,0.852,487.0,CCCC(CC)C(C)(CC)CC
3-methyl-2-octanol,144.2572,605.01,0.814,454.0,CCC(CC)C(C)(CC)CC
3-methyl-2-octanone,142.24132,629.65,0.541,456.62,CCC(CC)CC(C)(CC)CC
3-methyl-2-octene,126.24192,593.62,0.411,418.15,CC(=C)CC(O)=O
3-methyl-2-pentanol,102.17656,578.0,0.576,407.36,CCC(C)(CC)CCO
3-methyl-2-pentanone,100.16068,573.0,0.389,390.55,CCC(C)(CC)C=C
"3-methyl-2-pentanone, (±)",100.16068,576.61,0.362,390.65,CCC(C)(CC)C(C)O
"3-methyl-2-pentene, cis and trans",84.16128,506.59,0.25,341.05,CCCCCCC(C)(CC)CC
3-methyl-2-propylnaphthalene,184.28104,812.35,0.537,585.41,CCCCCC(C)(CC)CC
3-methyl-2-propylphenol,150.22056,762.45,0.541,535.0,CCC(C)(CC)CC
3-methyl-2-thiahexane,118.24316,608.92,0.351,412.15,CCCCC(C)(O)CC
3-methyl-2-thiapentane,104.21628,585.0,0.266,385.15,CCCC=C(C)CC
"3-methyl-3,4-diethylheptane",170.33844,649.4,0.461,474.15,CCCC(C)(O)CC
"3-methyl-3,4-diethylhexane",156.31156,638.91,0.419,459.15,CCCCCCC(C)(O)CC
"3-methyl-3,5-diethylheptane",170.33844,643.92,0.461,470.15,CCCCCC(C)(O)CC
3-methyl-3-butenoic acid,100.11732,676.0,0.399,450.0,CCC(C)(O)CC
3-methyl-3-ethyl-1-pentanol,130.23032,608.48,0.738,448.0,CCC(C)(CC)OC(C)=O
3-methyl-3-ethyl-1-pentene,112.21504,567.4,0.297,385.15,CCCC(CC)(CC)C(C)CC
3-methyl-3-ethyl-2-pentanol,130.23032,591.48,0.706,433.0,CCC(C)C(CC)(CC)CC
3-methyl-3-ethylnonane,170.33844,649.73,0.489,477.15,CCC(C)C(CC)C(CC)CC
3-methyl-3-ethyloctane,156.31156,634.5,0.448,458.85,CCc1cscc1C
3-methyl-3-ethylpentane,114.23092,576.5,0.305,391.42,CCC(CC)C(C)(O)CC
3-methyl-3-heptanol,130.23032,589.67,0.738,434.15,CCCCCC(CC)C(C)CC
3-methyl-3-heptene,112.21504,564.74,0.328,394.15,CCCCC(CC)C(C)CC
3-methyl-3-hexanol,116.20344,573.58,0.695,415.95,CCc1ccc(O)cc1C
3-methyl-3-nonanol,158.28408,637.32,0.819,482.0,CCCC(O)C(C)CC
3-methyl-3-octanol,144.2572,618.98,0.78,462.15,CCCCCC(C)(CC)O
3-methyl-3-pentanol,102.17656,575.6,0.432,394.06,CCCC(=O)C(C)CC
3-methyl-3-pentyl acetate,144.21384,618.0,0.54,421.15,CCCC(C(C)C)C(C)CC
"3-methyl-4,4-diethylheptane",170.33844,653.51,0.461,477.15,CCCCC(C(C)C)C(C)CC
"3-methyl-4,4-diethylhexane",156.31156,644.47,0.419,463.15,CC(C)c1ccc(O)cc1C
"3-methyl-4,5-diethylheptane",170.33844,641.61,0.491,471.15,CCCCC(O)C(C)CC
3-methyl-4-ethyl thiophene,126.2224,641.79,0.342,438.65,CCCCC(=O)C(C)CC
3-methyl-4-ethyl-3-hexanol,144.2572,608.58,0.748,452.0,CCCC(CCC)C(C)CC
3-methyl-4-ethylnonane,170.33844,642.08,0.519,474.15,CCCCC(CCC)C(C)CC
3-methyl-4-ethyloctane,156.31156,625.61,0.478,455.15,CCCc1ccc(O)cc1C
3-methyl-4-ethylphenol,136.19368,730.79,0.495,503.15,CCCC(C(C)CC)C(C)(C)C
3-methyl-4-heptanol,130.23032,591.45,0.773,437.85,CCC(C)CC(CC)(CC)CC
"3-methyl-4-heptanol, (R*,S*)-(±)",130.23032,600.92,0.733,435.15,CCCCC(CC)CC(C)CC
3-methyl-4-heptanone,128.21444,624.0,0.528,426.15,CCCC(CC)CC(C)CC
3-methyl-4-isopropylheptane,156.31156,622.52,0.449,450.15,CCc1cc(C)cc(O)c1
3-methyl-4-isopropyloctane,170.33844,637.53,0.491,468.15,CCc1scc(C)c1
3-methyl-4-isopropylphenol,150.22056,732.05,0.509,510.0,CCCC(CC(C)CC)C(C)C
3-methyl-4-octanol,144.2572,603.88,0.814,453.15,CC(C)c1cc(C)cc(O)c1
3-methyl-4-octanone,142.24132,629.65,0.541,447.15,CCCCC(O)CC(C)CC
3-methyl-4-propylheptane,156.31156,621.49,0.478,452.15,CCCC(CCC)CC(C)CC
3-methyl-4-propyloctane,170.33844,636.66,0.519,470.15,CCCc1cc(C)cc(O)c1
3-methyl-4-propylphenol,150.22056,762.45,0.541,535.0,CCCC(CC)CCC(C)CC
3-methyl-4-tert-butylheptane,170.33844,638.14,0.432,463.15,CCC(C)CCC(CC)CC
"3-methyl-5,5-diethylheptane",170.33844,646.66,0.461,472.15,CCc1ccc(C)cc1O
3-methyl-5-ethylnonane,170.33844,633.95,0.519,468.15,CCC(C)CCCC(CC)CC
3-methyl-5-ethyloctane,156.31156,617.37,0.478,449.15,CN(C)c1cccc(C)c1
3-methyl-5-ethylphenol,136.19368,739.51,0.495,509.15,CCC1=CC(=CC(=C1)C)O
3-methyl-5-ethylthiophene,126.2224,641.79,0.342,427.35,CCC\C(C)=C/C
3-methyl-5-isopropyloctane,170.33844,633.44,0.491,465.15,CC\C(C)=C/C
3-methyl-5-isopropylphenol,150.22056,738.01,0.509,514.15,-
3-methyl-5-nonanol,158.28408,634.39,0.852,482.0,CC\C=C(C)/CC
3-methyl-5-propyloctane,170.33844,632.6,0.519,467.15,CCCC(CCC)CC(C)CC
3-methyl-5-propylphenol,150.22056,756.97,0.541,531.15,CCC\C(C)=C\C
3-methyl-6-ethylnonane,170.33844,639.37,0.519,472.15,CC\C(C)=C\C
3-methyl-6-ethyloctane,156.31156,625.61,0.478,455.15,-
3-methyl-6-ethylphenol,136.19368,722.37,0.495,497.35,CC/C=C(C)/CC
3-methyl-7-ethylnonane,170.33844,640.72,0.519,473.15,CNCC(O)CO
"3-methyl-N,N-dimethylaniline",135.20896,705.58,0.413,485.15,Cc1cccc(C=O)c1
3-methyl-cis-2-heptene,112.21504,574.35,0.351,395.15,Cc1cccc(CO)c1
3-methyl-cis-2-hexene,98.18816,549.51,0.307,370.41,Cc1cccc(c1)c2ccccc2