name,molweight,critical temperature (K),acentric factor,boiling point (K),SMILES
"3,3,4,4-tetramethylheptane",156.31156,644.46,0.361,457.15,CCC(C)(C)C(C)(CC)CC
"3,3,4,4-tetramethylhexane",142.28468,646.7,0.311,443.16,CCC(CC)C(C)C(C)(C)CC
"3,3,4,4-tetramethyloctane",170.33844,658.66,0.403,475.15,CCCC(C)C(C)(C)CC
"3,3,4,5,5-pentamethylheptane",170.33844,672.62,0.375,482.15,CCC(C)C(C)(C)CC
"3,3,4,5-tetramethylheptane",156.31156,636.04,0.391,454.15,CCCCCC(C)C(C)(C)CC
"3,3,4,5-tetramethyloctane",170.33844,649.16,0.432,471.15,CCCCC(C)C(C)(C)CC
"3,3,4,6-tetramethyloctane",170.33844,646.41,0.432,469.15,CC(O)C(C)(C)CC(C)(C)C
"3,3,4-triethylhexane",170.33844,656.25,0.461,479.15,CCC(C)(C)CC(C)(C)CC
"3,3,4-trimethyl-1-pentanol",130.23032,606.5,0.706,444.0,CCCC(C)(C)CC(C)(C)CC
"3,3,4-trimethyl-1-pentene",112.21504,561.62,0.268,378.15,CCC(C)C(C)CC(C)(C)CC
"3,3,4-trimethyl-2-pentanol",130.23032,602.05,0.674,438.15,CC(C)CC(C)(C)CCO
"3,3,4-trimethyl-4-ethylheptane",170.33844,662.82,0.403,478.15,CCC(C)C(CC)C(C)(C)CC
"3,3,4-trimethyl-4-ethylhexane",156.31156,652.92,0.361,463.15,CCC(C)(C)CC(C)(CC)CC
"3,3,4-trimethyl-5-ethylheptane",170.33844,650.54,0.432,472.15,CCC(C)CC(C)(C)CC
"3,3,4-trimethylheptane",142.28468,622.1,0.365,435.06,CCCCC(C)CC(C)(C)CC
"3,3,4-trimethylhexane",128.2578,602.3,0.328,413.62,CCCC(C)CC(C)(C)CC
"3,3,4-trimethylnonane",170.33844,650.77,0.461,475.15,CCC(C)(C)CCC(C)(C)CC
"3,3,4-trimethyloctane",156.31156,633.34,0.419,455.15,CCC(C)(C)C(O)CC(C)C
"3,3,5,5-tetramethyl-2-hexanol",158.28408,624.72,0.693,463.0,CCCC(C)CCC(C)(C)CC
"3,3,5,5-tetramethylheptane",156.31156,638.82,0.361,453.15,CCC(C)CCC(C)(C)CC
"3,3,5,5-tetramethyloctane",170.33844,651.73,0.403,470.15,CCC(C)CCCC(C)(C)CC
"3,3,5,6-tetramethyloctane",170.33844,642.27,0.432,466.15,CCC(Br)(Br)CC
"3,3,5-trimethyl-1-hexanol",144.2572,627.43,0.748,466.0,CC(=C)C(Cl)Cl
"3,3,5-trimethyl-4-ethylheptane",170.33844,647.78,0.432,470.15,CCC(Cl)(Cl)CC
"3,3,5-trimethyl-5-ethylheptane",170.33844,658.66,0.403,475.15,ClC(Cl)C=C
"3,3,5-trimethylheptane",142.28468,609.5,0.385,428.85,CCC(CC)(CC)C(C)C
"3,3,5-trimethylnonane",170.33844,634.33,0.461,463.15,CCC(CC)(CC)C(C)O
"3,3,5-trimethyloctane",156.31156,622.21,0.419,447.15,CCCCC(CC)(CC)CC
"3,3,6,6-tetramethyloctane",170.33844,641.61,0.403,462.85,CCCC(CC)(CC)CC
"3,3,6-trimethyl-4-heptanol",158.28408,607.56,0.757,455.0,CCCCCC(CC)(CC)CC
"3,3,6-trimethylnonane",170.33844,645.29,0.461,471.15,CCC(CC)(CC)CC
"3,3,6-trimethyloctane",156.31156,626.38,0.419,450.15,CCC(F)(F)CC
"3,3,7-trimethylnonane",170.33844,641.18,0.461,468.15,CCC(I)(I)CC
"3,3-dibromopentane",229.9424,656.98,0.414,440.15,CC(C)(C)C(O)CO
"3,3-dichloro-2-methyl-1-propene",124.99704,640.0,0.302,381.15,CC(C)(C)CCO
"3,3-dichloropentane",141.0398,608.66,0.291,405.15,CC(C)(C)C=C
"3,3-dichloropropene",110.97016,577.0,0.206,357.55,CC(C)(C)C#C
"3,3-diethyl-2-methylpentane",142.28468,639.9,0.346,442.86,CCCC(C)(C)CCO
"3,3-diethyl-2-pentanol",144.2572,620.7,0.748,461.0,CCCC(C)(C)C=C
"3,3-diethylheptane",156.31156,636.16,0.448,460.05,CCC(C)(C)CCO
"3,3-diethylhexane",142.28468,627.8,0.377,439.46,CCC(C)(C)C=C
"3,3-diethyloctane",170.33844,651.09,0.489,478.15,CCC(C)(C)C#C
"3,3-diethylpentane",128.2578,610.05,0.338,419.34,CC(O)C(C)(C)C
"3,3-difluoropentane",108.1312064,500.25,0.29,333.45,CCC(CC)(F)F
"3,3-diiodopentane",323.94334,752.99,0.271,496.85,CC(=O)C(C)(C)C
"3,3-dimethyl-1,2-butanediol",118.17596,634.56,1.105,478.65,CCC(CO)C(C)(C)C
"3,3-dimethyl-1-butanol",102.17656,587.6,0.609,416.15,CCC(=C)C(C)(C)C
"3,3-dimethyl-1-butene",84.16128,480.0,0.228,314.39,CCCC(C)(C)C(C)O
"3,3-dimethyl-1-butyne",82.1454,491.15,0.167,310.87,CCCC(C)(C)C(C)=O
"3,3-dimethyl-1-hexanol",130.23032,616.63,0.738,454.0,CCC(C)(C)C(C)O
"3,3-dimethyl-1-hexene",112.21504,555.62,0.297,377.15,CCC(C)(C)C(C)=O
"3,3-dimethyl-1-pentanol",116.20344,604.2,0.695,438.15,CSC(C)(C)C
"3,3-dimethyl-1-pentene",98.18816,527.74,0.253,350.63,CCC(C)(C)SC
"3,3-dimethyl-1-pentyne",96.17228,528.91,0.21,343.15,CCC(C)(C)C(CC)(CC)CC
"3,3-dimethyl-2-butanol",102.17656,566.4,0.496,393.15,CCCCCC#CC(C)(C)CC
"3,3-dimethyl-2-butanol, (±)",102.17656,581.8,0.582,393.55,CCCC(CC)C(C)(C)CC
"3,3-dimethyl-2-butanone",100.16068,564.0,0.327,379.45,CCCCC(CC)C(C)(C)CC
"3,3-dimethyl-2-ethyl-1-butanol",130.23032,609.23,0.706,446.0,CCCC(O)C(C)(C)CC
"3,3-dimethyl-2-ethyl-1-butene",112.21504,568.22,0.272,383.15,CCCC(C(C)C)C(C)(C)CC
"3,3-dimethyl-2-hexanol",130.23032,591.48,0.706,433.0,CCCCC#CC(C)(C)CC
"3,3-dimethyl-2-hexanone",128.21444,624.0,0.528,420.15,CCCC(CCC)C(C)(C)CC
"3,3-dimethyl-2-pentanol",116.20344,582.97,0.662,420.15,CCC(CC)CC(C)(C)CC
"3,3-dimethyl-2-pentanone",114.18756,589.07,0.387,403.75,CCCC(CC)CC(C)(C)CC
"3,3-dimethyl-2-thiabutane",104.21628,570.0,0.233,372.05,CCC(CC)CCC(C)(C)CC
"3,3-dimethyl-2-thiapentane",118.24316,632.0,0.284,423.0,CC(=O)OCC=C(C)C
"3,3-dimethyl-4,4-diethylhexane",170.33844,669.75,0.403,483.15,CC(C)(C)CC=O
"3,3-dimethyl-4-decyne",166.30668,677.2,0.503,500.93,CC(C)(C)CC#N
"3,3-dimethyl-4-ethylheptane",156.31156,630.56,0.419,453.15,CC1(C)CCCC=C1
"3,3-dimethyl-4-ethyloctane",170.33844,645.29,0.461,471.15,CC1(C)CCC=C1
"3,3-dimethyl-4-heptanol",144.2572,604.74,0.748,449.15,CCCCCCCC(C)(C)CC
"3,3-dimethyl-4-isopropylheptane",170.33844,643.65,0.432,467.15,CCCCC(C)(C)CC
"3,3-dimethyl-4-nonyne",152.2798,660.54,0.46,483.34,CCCC(C)(C)CC
"3,3-dimethyl-4-propylheptane",170.33844,642.55,0.461,469.15,CCCCCCC(C)(C)CC
"3,3-dimethyl-5-ethylheptane",156.31156,623.6,0.419,448.15,CCCCCC(C)(C)CC
"3,3-dimethyl-5-ethyloctane",170.33844,635.7,0.461,464.15,CCC(C)(C)CC
"3,3-dimethyl-6-ethyloctane",170.33844,642.55,0.461,469.15,CC1(C)CCOC1
"3,3-dimethylallyl acetate",128.17108,592.33,0.432,447.69,CC1(C)CCCSC1
"3,3-dimethylbutanal",100.16068,558.82,0.37,377.15,CC1(C)CCSC1
"3,3-dimethylbutanenitrile",97.16008,598.54,0.379,409.15,Cc1ccc(cc1)c2cccc(C)c2
"3,3-dimethylcyclohexene",110.19916,599.77,0.247,392.15,CCC(C)(O)C(C)(C)C(C)C
"3,3-dimethylcyclopentene",96.17228,559.35,0.232,361.15,CCC(C)C(C)(C)C(C)CC
"3,3-dimethyldecane",170.33844,648.37,0.489,476.15,CCCC(C)C(C)(C)C(C)CC
"3,3-dimethylheptane",128.2578,588.85,0.365,410.45,CCC(C)CC(C)(C)C(C)CC
"3,3-dimethylhexane",114.23092,562.0,0.32,385.12,CCC(C)(C)C(C)CCO
"3,3-dimethylnonane",156.31156,629.38,0.448,455.15,CC(CCO)C(C)(C)C
"3,3-dimethyloctane",142.28468,612.1,0.404,434.36,CC(C=C)C(C)(C)C
"3,3-dimethylpentane",100.20404,536.4,0.268,359.21,CC(O)C(C)C(C)(C)C
"3,3-dimethyltetrahydrofuran",100.16068,573.9,0.269,372.15,CC=C(C)C(C)(C)C
"3,3-dimethylthiacyclohexane",130.25416,657.02,0.249,427.18,CCCC(C)(C)C(C)(CC)CC
"3,3-dimethylthiacyclopentane",116.22728,623.18,0.235,400.03,CCC(C)(C)C(C)(O)CC
"3,4'-dimethylbiphenyl",182.26516,808.3,0.414,556.15,CCC(C)C(C)(C)C(CC)CC
"3,4,4,5-tetramethyl-3-hexanol",158.28408,641.12,0.693,475.15,-
"3,4,4,5-tetramethylheptane",156.31156,641.65,0.391,458.15,CCC(C)C(C)(C)C(C)CC
"3,4,4,5-tetramethyloctane",170.33844,653.29,0.432,474.15,CCCC(C)(C)C(C)CC
"3,4,4,6-tetramethyloctane",170.33844,645.03,0.432,468.15,CCCCCC(C)(C)C(C)CC
"3,4,4-trimethyl-1-hexanol",144.2572,624.94,0.748,464.15,CCCCC(C)(C)C(C)CC
"3,4,4-trimethyl-1-pentanol",130.23032,606.5,0.706,444.0,CCC(C)(O)C(C)C(C)(C)C
"3,4,4-trimethyl-1-pentene",112.21504,560.14,0.268,377.15,CCCC(C)(C)C(C)C(C)CC
"3,4,4-trimethyl-2-pentanol",130.23032,592.43,0.674,431.15,CCC(C)C(C)C(C)C(C)CC
"3,4,4-trimethyl-2-pentene",112.21504,564.74,0.328,385.15,CCC(C)C(C)C(C)(CC)CC
"3,4,4-trimethyl-3-ethylheptane",170.33844,662.82,0.403,478.15,CCC(C)C(C)(CC)C(C)CC
"3,4,4-trimethyl-3-hexanol",144.2572,597.8,0.682,439.15,CCC(C)C(C)C(C)CC
"3,4,4-trimethyl-5-ethylheptane",170.33844,654.67,0.432,475.15,CCCCC(C)C(C)C(C)CC
"3,4,4-trimethyl-cis-2-pentene",112.21504,573.25,0.263,385.15,CCCC(C)C(C)C(C)CC
"3,4,4-trimethyl-trans-2-pentene",112.21504,573.25,0.263,385.15,Cc1cc(O)cc(C)c1C
"3,4,4-trimethylheptane",142.28468,620.9,0.365,434.26,CCCC(C)CC(C)C(C)CC
"3,4,4-trimethylnonane",170.33844,648.03,0.461,473.15,CCC(C)CC(C)C(C)CC
"3,4,4-trimethyloctane",156.31156,631.95,0.419,454.15,CCC(C)CCC(C)C(C)CC
"3,4,5,5-tetramethyl-3-hexanol",158.28408,631.67,0.693,468.15,CCCC(Br)C(Br)CC
"3,4,5,5-tetramethyloctane",170.33844,647.78,0.432,470.15,CCC(Br)C(Br)CC
"3,4,5,6-tetramethyloctane",170.33844,646.71,0.462,472.15,ClCC(Cl)C=C
"3,4,5-trimethyl-3-ethylheptane",170.33844,654.67,0.432,475.15,Nc1ccc(Cl)c(Cl)c1
"3,4,5-trimethyl-4-ethylheptane",170.33844,658.81,0.432,478.15,Clc1ccc(cc1Cl)N=C=O
"3,4,5-trimethylheptane",142.28468,612.8,0.417,435.66,Cc1ccc(Cl)c(Cl)c1
"3,4,5-trimethylnonane",170.33844,644.34,0.491,473.15,CCCC(CC)C(CC)CC
"3,4,5-trimethyloctane",156.31156,628.05,0.449,454.15,CCC(CC)C(CC)CC
"3,4,5-trimethylphenol",136.19368,761.43,0.494,524.95,CCCCC(CC)C(CC)CC
"3,4,6-trimethylnonane",170.33844,640.25,0.491,470.15,CCc1ccc(O)cc1CC
"3,4,6-trimethyloctane",156.31156,625.29,0.449,452.15,COC1CCC=CO1
"3,4,7-trimethylnonane",170.33844,644.34,0.491,473.15,CSc1ccc(C)c(C)c1
"3,4-dibromoheptane",257.99616,700.05,0.571,510.82,CCC(C)C(C)CCO
"3,4-dibromohexane",243.96928,684.21,0.526,486.03,CCC(C)C(C)C=C
"3,4-dichloro-1-butene",124.99704,589.0,0.3,388.0,CC(C)C(C)CCO
"3,4-dichloroaniline",162.01784,800.0,0.468,545.0,CC(C)C(C)C=C
"3,4-dichlorophenyl isocyanate",188.01236,733.0,0.335,501.0,CC(C)C(C)C#C
"3,4-dichlorotoluene",161.03004,710.0,0.343,482.05,CCc1c(O)ccc(C)c1C
"3,4-diethylheptane",156.31156,622.87,0.478,453.15,CCC(C)C(C)C(C)O
"3,4-diethylhexane",142.28468,618.8,0.403,437.06,CCC(C)C(C)C(C)=O
"3,4-diethyloctane",170.33844,639.37,0.519,472.15,CC(C)C(C)C(C)O
"3,4-diethylphenol",150.22056,780.8,0.541,547.87,CC(C)C(C)C(C)=O
"3,4-dihydro-2-methoxy-2H-pyran",114.1442,599.0,0.367,400.75,CSC(C)C(C)C
"3,4-dimethyl-(1-thiaethyl)-benzene",152.26028,743.84,0.415,510.74,CCC(C)(CC)C(C)(CC)CC
"3,4-dimethyl-1-hexanol",130.23032,613.27,0.773,454.0,CCC(C)(c1ccccc1)C(C)(CC)c2ccccc2
"3,4-dimethyl-1-hexene",112.21504,563.01,0.327,385.15,CCCC(C)C(C)(CC)CC
"3,4-dimethyl-1-pentanol",116.20344,600.63,0.731,438.15,CCCCC(C)C(C)(CC)CC
"3,4-dimethyl-1-pentene",98.18816,528.31,0.283,353.95,CCC(C)C(C)(O)CC
"3,4-dimethyl-1-pentyne",96.17228,539.46,0.241,353.15,CC(C)C(C)(C(C)C)C(C)O
"3,4-dimethyl-2-ethylphenol",150.22056,733.03,0.54,515.0,CCCC(C)(CC)C(C)CC
"3,4-dimethyl-2-hexanol",130.23032,603.29,0.741,444.15,CCCCC(C)(CC)C(C)CC
"3,4-dimethyl-2-hexanone",128.21444,624.0,0.528,431.15,CCCC(C)(C(C)C)C(C)CC
"3,4-dimethyl-2-pentanol",116.20344,587.7,0.697,426.15,CCCCC(C)(O)C(C)CC
"3,4-dimethyl-2-pentanone",114.18756,586.69,0.42,405.15,CCCC(C)(CCC)C(C)CC
"3,4-dimethyl-2-thiapentane",118.24316,597.54,0.321,401.15,CCC(C)C(C)C(CC)CC
"3,4-dimethyl-3,4-diethylhexane",170.33844,669.75,0.403,483.15,CCCC(CC)C(C)C(C)CC
"3,4-dimethyl-3,4-diphenylhexane",266.42644,810.0,0.698,619.15,CCc1cc(O)cc(C)c1C
"3,4-dimethyl-3-ethylheptane",156.31156,637.52,0.419,458.15,CCC(CC)CC(C)C(C)CC
"3,4-dimethyl-3-ethyloctane",170.33844,648.03,0.461,473.15,CCc1cc(C)c(C)cc1O
"3,4-dimethyl-3-hexanol",130.23032,580.75,0.706,425.15,CCC(C)C(C)(CC)O
"3,4-dimethyl-3-isopropyl-2-pentanol",158.28408,610.96,0.728,456.0,C/C=C(/C)C(C)C
"3,4-dimethyl-4-ethylheptane",156.31156,631.95,0.419,454.15,-
"3,4-dimethyl-4-ethyloctane",170.33844,649.4,0.461,474.15,-
"3,4-dimethyl-4-isopropylheptane",170.33844,653.29,0.432,474.15,C\C=C(/C)C(C)C
"3,4-dimethyl-4-octanol",158.28408,616.49,0.788,464.0,-
"3,4-dimethyl-4-propylheptane",170.33844,645.29,0.461,471.15,Cc1ccc(N)cc1C
"3,4-dimethyl-5-ethylheptane",156.31156,629.43,0.449,455.15,Cc1ccc(cc1C)c2ccccc2
"3,4-dimethyl-5-ethyloctane",170.33844,641.61,0.491,471.15,CCCCCCC(C)C(C)CC
"3,4-dimethyl-5-ethylphenol",150.22056,733.24,0.54,515.15,Cc1cocc1C
"3,4-dimethyl-6-ethyloctane",170.33844,641.61,0.491,471.15,CCCC(C)C(C)CC
"3,4-dimethyl-6-ethylphenol",150.22056,733.03,0.54,515.0,CCC(C)C(C)CC
"3,4-dimethyl-cis-2-hexene",112.21504,570.01,0.322,389.15,CCCCCC(C)C(C)CC
"3,4-dimethyl-cis-2-pentene",98.18816,542.11,0.278,362.4,CCCCC(C)C(C)CC
"3,4-dimethyl-cis-3-hexene",112.21504,578.0,0.326,395.15,CC=C(C)C(C)C
"3,4-dimethyl-trans-2-hexene",112.21504,570.01,0.322,389.15,Cc1ccncc1C
"3,4-dimethyl-trans-2-pentene",98.18816,545.47,0.278,364.65,Cc1cnc2ccccc2c1C
"3,4-dimethyl-trans-3-hexene",112.21504,578.0,0.326,395.15,Cc1ccc(C=C)cc1C
"3,4-dimethylaniline",121.18208,695.58,0.433,501.15,CC1COCC1C
"3,4-dimethylbiphenyl",182.26516,801.2,0.454,555.15,Cc1cscc1C
"3,4-dimethyldecane",170.33844,647.49,0.519,478.15,Cc1ccc(S)cc1C
"3,4-dimethylfuran",96.12892,535.1,0.332,351.67,Cc1ccc(c(c1)[N+]([O-])=O)[N+]([O-])=O
"3,4-dimethylheptane",128.2578,591.9,0.379,413.76,Cc1ccc(O)cc1C
"3,4-dimethylhexane",114.23092,568.8,0.338,390.88,CC(CCO)CC(C)(C)C
"3,4-dimethylnonane",156.31156,629.74,0.478,458.15,CCC(C)(C)CC(C)(O)CC
"3,4-dimethyloctane",142.28468,614.0,0.417,436.56,CCC(C)(O)CC(C)(C)C
"3,4-dimethylpent-2-ene",98.18816,537.61,0.294,360.8,CC(CC=O)CC(C)(C)C
"3,4-dimethylpyridine",107.1552,683.8,0.35,452.25,CC(CC(O)=O)CC(C)(C)C
"3,4-dimethylquinoline",157.21508,765.83,0.497,564.15,CC(CCOC(C)=O)CC(C)(C)C
"3,4-dimethylstyrene",132.20528,679.34,0.375,465.57,CCCCC(C)(C)CC(C)CC
"3,4-dimethyltetrahydrofuran",100.16068,581.14,0.282,381.65,CCCC(C)(C)CC(C)CC
"3,4-dimethylthiophene",112.19552,640.4,0.298,418.15,CCCC(C)C(C)CC(C)CC
"3,4-dimethylthiophenol",138.2334,730.98,0.373,489.45,CCC(C)CC(C)CC(C)CC
"3,4-dinitrotoluene",182.13572,842.0,0.709,610.0,CN(C)c1cc(C)cc(C)c1
"3,4-xylenol",122.1668,729.95,0.576,500.15,CC(C)(C)c1cc(O)cc(c1)C(C)(C)C
"3,5,5-trimethyl-1-hexanol",144.2572,627.63,0.748,466.15,CC(C)c1cc(O)cc(c1)C(C)C
"3,5,5-trimethyl-3-heptanol",158.28408,629.12,0.724,468.75,Cc1cc(cc(c1)C(C)(C)C)C(C)(C)C
"3,5,5-trimethyl-3-hexanol",144.2572,597.6,0.682,439.0,Cc1cc(Cl)cc(Cl)c1
"3,5,5-trimethylhexanal",142.24132,640.0,0.592,456.62,CCC(CC)CC(CC)CC
"3,5,5-trimethylhexanoic acid",158.24072,703.0,0.831,456.91,CCCC(CC)CC(CC)CC
"3,5,5-trimethylhexyl acetate",186.29448,678.7,0.622,480.0,CCc1cc(O)cc(CC)c1
"3,5,5-trimethylnonane",170.33844,635.7,0.461,464.15,CSc1cc(C)cc(C)c1
"3,5,5-trimethyloctane",156.31156,616.64,0.419,443.15,CC(C)CC(C)CCO
"3,5,6-trimethylnonane",170.33844,640.25,0.491,470.15,CC(C)CC(C)C=C
"3,5,7-trimethylnonane",170.33844,637.53,0.491,468.15,CCc1c(C)cc(C)cc1O
"3,5,N,N-tetramethylaniline",149.23584,690.0,0.69,500.15,CC(C)CC(C)C(C)O
"3,5-bis(1,1-dimethylethyl)phenol",206.32808,765.0,0.631,527.81,CCC(C)CC(C)(CC)CC
"3,5-bis(1-methylethyl)phenol",178.27432,755.67,0.59,524.28,CCCC(C)CC(C)(CC)CC
"3,5-di-tert-butyltoluene",204.35556,741.0,0.638,517.15,CCC(C)CC(C)(O)CC
"3,5-dichlorotoluene",161.03004,710.0,0.343,474.65,CCC(C)(O)CC(C)C
"3,5-diethylheptane",156.31156,621.49,0.478,452.15,CCC(CC)CC(CC)CC
"3,5-diethyloctane",170.33844,636.66,0.519,470.15,CCCC(C)CC(C)(O)CC
"3,5-diethylphenol",150.22056,742.72,0.541,521.15,CCC(C)C(CC)C(C)CC
"3,5-dimethyl-(1-thiaethyl)-benzene",152.26028,743.84,0.415,510.74,CCCC(C)C(CC)C(C)CC
"3,5-dimethyl-1-hexanol",130.23032,616.17,0.773,456.15,CCc1c(C)cc(O)cc1C
"3,5-dimethyl-1-hexene",112.21504,551.31,0.327,377.15,CCC(C)C(O)C(C)CC
"3,5-dimethyl-2-ethylphenol",150.22056,761.5,0.54,535.0,CCC(C)C(=O)C(C)CC
"3,5-dimethyl-2-hexanol",130.23032,588.35,0.741,433.15,CCC(C)C(C(C)C)C(C)CC
"3,5-dimethyl-3-ethylheptane",156.31156,630.56,0.419,453.15,CCCC(C(C)CC)C(C)CC
"3,5-dimethyl-3-ethyloctane",170.33844,642.55,0.461,469.15,CCCC(C)(CC)CC(C)CC
"3,5-dimethyl-3-heptanol",144.2572,605.89,0.748,450.0,CCC(C)CC(C)C(CC)CC
"3,5-dimethyl-3-hexanol",130.23032,580.75,0.706,425.15,CCC(C)(CC(C)C)O
"3,5-dimethyl-3-hexanol, (±)",130.23032,600.92,0.733,425.15,-
"3,5-dimethyl-3-octanol",158.28408,619.15,0.788,466.0,Cc1cc(C)cc(N)c1
"3,5-dimethyl-4-ethylheptane",156.31156,628.05,0.449,454.15,Cc1cc(C)cc(c1)c2ccccc2
"3,5-dimethyl-4-ethyloctane",170.33844,640.25,0.491,470.15,CCCCCC(C)CC(C)CC
"3,5-dimethyl-4-ethylphenol",150.22056,757.44,0.54,532.15,CCC(C)CC(C)CC
"3,5-dimethyl-4-heptanol",144.2572,616.34,0.782,460.15,CCCCC(C)CC(C)CC
"3,5-dimethyl-4-heptanone",142.24132,629.65,0.541,435.15,CCCC(C)CC(C)CC
"3,5-dimethyl-4-isopropylheptane",170.33844,639.86,0.462,467.15,Cc1cncc(C)c1
"3,5-dimethyl-4-propylheptane",170.33844,638.89,0.491,469.15,Cc1cc(C)cc(C=C)c1
"3,5-dimethyl-5-ethyloctane",170.33844,634.33,0.461,463.15,Cc1cc(C)cc(S)c1
"3,5-dimethyl-6-ethyloctane",170.33844,640.25,0.491,470.15,Cc1cc(cc(c1)[N+]([O-])=O)[N+]([O-])=O
"3,5-dimethyl-cis-2-hexene",112.21504,564.15,0.322,385.15,Cc1cc(C)cc(O)c1
"3,5-dimethyl-trans-2-hexene",112.21504,564.15,0.322,385.15,CCCC(C)(C)CCC(C)CC
"3,5-dimethylaniline",121.18208,695.58,0.433,493.65,CCC(CC)CCC(CC)CC
"3,5-dimethylbiphenyl",182.26516,792.44,0.458,547.65,CCC(C)CCC(C)(CC)CC
"3,5-dimethyldecane",170.33844,640.72,0.519,473.15,CCC(C)(O)CCC(C)C
"3,5-dimethylheptane",128.2578,583.2,0.385,409.16,CCC(C)CCC(C)(O)CC
"3,5-dimethylnonane",156.31156,622.87,0.478,453.15,CCC(C)CC(CC)C(C)CC
"3,5-dimethyloctane",142.28468,606.3,0.424,432.56,CCC(C)CC(O)C(C)CC
"3,5-dimethylpyridine",107.1552,667.2,0.364,445.05,CCCCC(C)CCC(C)CC
"3,5-dimethylstyrene",132.20528,679.34,0.375,465.57,CCCC(C)CCC(C)CC
"3,5-dimethylthiophenol",138.2334,730.98,0.373,489.45,CCC(C)CCC(C)CC
"3,5-dinitrotoluene",182.13572,814.0,0.702,588.0,Cc1ccc2ncc(C)cc2c1
"3,5-xylenol",122.1668,715.65,0.485,494.89,CC(C)CCCC(C)CCCC(C)CCCC(C)CC(O)=O
"3,6,6-trimethylnonane",170.33844,634.33,0.461,463.15,CC(C)CCCC(C)CCO
"3,6-diethyloctane",170.33844,643.43,0.519,475.15,CCC(CC)CCC(CC)CC
"3,6-dimethyl-3-ethyloctane",170.33844,646.66,0.461,472.15,CC(C)CCCC(C)C=C
"3,6-dimethyl-3-heptanol",144.2572,605.89,0.748,446.15,CC(C)CCCC(C)C(C)O
"3,6-dimethyl-3-octanol",158.28408,618.02,0.788,465.15,CCC(C)(O)CCCC(C)C
"3,6-dimethyl-4-ethyloctane",170.33844,638.89,0.491,469.15,-
"3,6-dimethyl-4-octanol",158.28408,613.56,0.822,464.0,CCCC(C)CCCC(C)CC
"3,6-dimethyldecane",170.33844,642.08,0.519,474.15,CCC(C)CCCC(C)CC
"3,6-dimethylnonane",156.31156,625.61,0.478,455.15,CC(C)CCCC(C)CCOC(C)=O
"3,6-dimethyloctane",142.28468,608.3,0.424,433.96,CCCC(=O)OCCC(C)CCCC(C)C
"3,6-dimethylquinoline",157.21508,780.41,0.497,543.15,Cc1ccc2cc(C)cnc2c1
"3,7,11,15-tetramethylhexadecanoic acid",312.5364,822.0,0.935,706.07,CCC(C)CCCCC(C)CC
"3,7-dimethyl-1-octanol",158.28408,638.54,0.852,485.15,Cc1cnc2c(C)cccc2c1
"3,7-dimethyl-1-octanol, (±)",158.28408,629.0,0.793,485.65,-
"3,7-dimethyl-1-octene",140.2688,616.98,0.457,427.15,CC(C)CCCC(C)C=C
"3,7-dimethyl-2-octanol",158.28408,641.33,0.822,485.0,CC(C)CCCC(C)C(C)O
"3,7-dimethyl-3-octanol",158.28408,623.33,0.788,469.15,CCC(C)(CCCC(C)C)O
"3,7-dimethyl-3-octanol, (±)",158.28408,629.0,0.793,469.65,-
"3,7-dimethyldecane",170.33844,643.43,0.519,475.15,CCCC(C)CCCC(C)CC
"3,7-dimethylnonane",156.31156,628.36,0.478,457.15,CCC(C)CCCC(C)CC
"3,7-dimethyloctanyl acetate",200.32136,693.8,0.533,505.0,CC(C)CCCC(C)CCOC(=O)C
"3,7-dimethyloctanyl butyrate",228.37512,720.2,0.62,559.87,CCCC(=O)OCCC(C)CCCC(C)C
"3,7-dimethylquinoline",157.21508,781.85,0.497,544.15,CC1=CC2=C(C=C1)C=C(C=N2)C
"3,8-dimethyldecane",170.33844,647.49,0.519,478.15,CCC(C)CCCCC(C)CC
"3,8-dimethylquinoline",157.21508,767.48,0.497,534.15,CC1=C2C(=CC=C1)C=C(C=N2)C
"3,cis-4-dimethylcyclohexene",110.19916,597.92,0.26,395.8,-
"3,cis-4-dimethylcyclopentene",96.17228,557.42,0.245,364.55,-
"3,cis-4-dimethylthiacyclohexane",130.25416,641.36,0.262,422.27,-
"3,cis-4-dimethylthiacyclopentane",116.22728,607.56,0.247,395.12,-
"3,cis-5-dimethylcyclohexene",110.19916,597.92,0.26,397.65,CC(C)OCC=C
"3,cis-5-dimethylcyclopentene",96.17228,557.42,0.245,364.55,CCCCC(CC)CCl
"3,cis-5-dimethylthiacyclohexane",130.25416,641.36,0.262,422.27,CN(C)CCCO
"3,cis-6-dimethylcyclohexene",110.19916,597.92,0.26,398.15,CNCCCN
"3,trans-4-dimethylcyclohexene",110.19916,597.92,0.26,395.8,CSCCC=O
"3,trans-4-dimethylcyclopentene",96.17228,557.42,0.245,364.55,CC(N)CCO
"3,trans-4-dimethylthiacyclohexane",130.25416,641.36,0.262,422.27,NCCCO
"3,trans-4-dimethylthiacyclopentane",116.22728,607.56,0.247,395.12,CC(N)C(C)O
"3,trans-5-dimethylcyclohexene",110.19916,597.92,0.26,395.8,CCC(N)C(C)C
"3,trans-5-dimethylcyclopentene",96.17228,557.42,0.245,364.55,CCC(C)(N)CC
"3,trans-5-dimethylthiacyclohexane",130.25416,641.36,0.262,422.27,CCCCC(N)CC