name,molweight,critical temperature (K),acentric factor,boiling point (K),SMILES
(+)-a-pinene,136.23704,647.0,0.341,428.65,-
(+)-camphene,136.23704,638.0,0.296,432.65,CC1(C)C2CCC(C2)C1=C
(-)-a-pinene,136.23704,647.0,0.341,429.35,CC1=CC[C@H]2C[C@@H]1C2(C)C
(-)-b-citronellol,156.2682,656.59,0.612,498.65,-
(-)-camphene,136.23704,638.0,0.296,439.95,CC1(C)C2CCC(C2)C1=C
"(1,1-dimethylbutyl)benzene",162.27492,697.15,0.437,478.65,CCCC(C)(C)c1ccccc1
(1-butylhexadecyl)benzene,358.65124,851.65,0.759,693.15,CCCCCCCCCCCCCCCC(CCCC)c1ccccc1
(1-ethyl-1-methylpropyl)benzene,162.27492,697.15,0.437,478.15,CCC(C)(CC)c1ccccc1
(1-ethylbutyl)benzene,162.27492,697.15,0.437,482.15,CCCC(CC)c1ccccc1
(1-ethyloctadecyl)benzene,358.65124,851.65,0.759,693.15,CCCCCCCCCCCCCCCCCC(CC)c1ccccc1
(1-hexylheptyl)benzene,260.46308,783.0,0.844,614.43,CCCCCCC(CCCCCC)c1ccccc1
(1-methylenepropyl)benzene,132.20528,666.0,0.354,455.15,CCC(=C)c1ccccc1
(1-methylheptyl)benzene,190.32868,712.89,0.565,523.94,CCCCCCC(C)c1ccccc1
(1-methylnonadecyl)benzene,358.65124,851.65,0.759,693.15,CCCCCCCCCCCCCCCCCCC(C)c1ccccc1
(1-methylnonyl)benzene,218.38244,738.32,0.659,562.65,CCCCCCCCC(C)c1ccccc1
(1-methylpentyl)benzene,162.27492,697.15,0.437,481.15,CCCCC(C)c1ccccc1
(1-octyldodecyl)benzene,358.65124,851.65,0.759,693.15,CCCCCCCCCCCC(CCCCCCCC)c1ccccc1
(1-propylheptadecyl)benzene,358.65124,851.65,0.759,693.15,CCCCCCCCCCCCCCCCC(CCC)c1ccccc1
(1-thiapropyl)-benzene,138.2334,712.96,0.372,478.15,CCSc1ccccc1
(1R)-(-)-menthyl chloride,174.71356,682.53,0.516,496.15,CC(C)C1CC[C@@H](C)CC1Cl
"(1R,2S,5R)-(-)-menthol",156.2682,658.0,0.78,489.55,CC(C)[C@@H]1CC[C@@H](C)C[C@H]1O
(1S)-(-)-b-pinene,136.23704,647.0,0.341,439.15,-
"(2,4-dimethylpentyl)benzene",176.3018,714.0,0.529,492.16,CC(C)CC(C)Cc1ccccc1
(2-methyl-1-propenyl)benzene,132.20528,681.41,0.341,461.06,CC(C)=Cc1ccccc1
(3-chloropropyl)cyclohexane,160.68668,662.93,0.474,487.85,ClCCCC1CCCCC1
(3-methylpentyl)benzene,162.27492,697.15,0.437,493.15,CCC(C)CCc1ccccc1
(3-octylundecyl)benzene,344.62436,841.84,0.778,683.15,CCCCCCCCC(CCCCCCCC)CCc1ccccc1
(4-methylpentyl)benzene,162.27492,697.15,0.437,490.15,CC(C)CCCc1ccccc1
(<+->)-2-butanol,74.1228,538.22,0.593,372.0,-
(<+->)-2-chlorooctane,148.67568,642.41,0.462,445.2,-
"(E)-2,2,5,5-tetramethylhex-3-ene",140.2688,616.98,0.457,398.35,CC(C)(C)\C=C\C(C)(C)C
(R)-(+)-b-citronellol,156.2682,656.59,0.612,480.78,C[C@H](CCC=C(C)C)CCO
(R)-(+)-propylene oxide,58.08004,501.13,0.236,317.97,C[C@@H]1CO1
(R)-(-)-1-amino-2-propanol,75.1106,631.0,0.737,433.15,C[C@@H](O)CN
(R)-(-)-1-methoxy-2-propanol,90.1222,569.0,0.759,430.7,COC[C@@H](C)O
(R)-(-)-2-amino-1-butanol,89.13748,571.82,0.711,446.15,CC[C@@H](N)CO
(R)-(-)-2-amino-1-propanol,75.1106,631.0,0.737,447.65,C[C@@H](N)CO
(R)-(-)-2-amino-3-methyl-1-butanol,103.16436,626.41,0.841,462.65,CC(C)[C@@H](N)CO
(R)-(-)-2-butanol,74.1228,538.22,0.593,372.65,CC[C@@H](C)O
(R)-(-)-2-heptanol,116.20344,587.2,0.709,420.75,CCCCC[C@@H](C)O
(R)-(-)-2-octanol,130.23032,600.92,0.733,448.9,CCCCCC[C@@H](C)O
(R)-(-)-2-pentanol,88.14968,562.34,0.577,397.1,CCC[C@@H](C)O
(R)-(-)-sec-butylamine,73.13808,503.5,0.331,333.15,CC[C@@H](C)N
(R)-2-amino-6-methylheptane,129.2456,601.45,0.5,428.15,CC(C)CCC[C@@H](C)N
(R)-2-aminooctane,129.2456,601.45,0.5,437.15,CCCCCC[C@@H](C)N
(R)-2-heptylamine,115.21872,565.35,0.409,416.15,CCCCC[C@@H](C)N
"(R)-3,7-dimethyl-1-octanol",158.28408,629.0,0.793,485.7,CC(C)CCC[C@@H](C)CCO
(RS)-2-hexanol,102.17656,581.8,0.582,413.15,CCCCC(C)O
(S)-(+)-1-amino-2-propanol,75.1106,631.0,0.737,433.15,C[C@H](O)CN
(S)-(+)-1-dimethylamino-2-propanol,103.16436,626.41,0.841,397.15,C[C@H](O)CN(C)C
(S)-(+)-1-methoxy-2-propanol,90.1222,569.0,0.759,430.7,COC[C@H](C)O
(S)-(+)-2-amino-1-butanol,89.13748,571.82,0.711,446.15,CC[C@H](N)CO
(S)-(+)-2-amino-3-methyl-1-butanol,103.16436,626.41,0.841,435.3,CC(C)[C@H](N)CO
(S)-(+)-2-butanol,74.1228,538.22,0.593,372.6,CC[C@H](C)O
(S)-(+)-2-decanol,158.28408,629.0,0.793,484.15,CCCCCCCC[C@H](C)O
(S)-(+)-2-heptanol,116.20344,587.2,0.709,426.8,CCCCC[C@H](C)O
(S)-(+)-2-hexanol,102.17656,581.8,0.582,411.65,CCCC[C@H](C)O
(S)-(+)-2-methoxypropanol,90.1222,569.0,0.759,430.7,CO[C@@H](C)CO
(S)-(+)-2-methylbutyric acid,102.1332,640.04,0.599,409.77,CC[C@H](C)C(O)=O
(S)-(+)-2-methylbutyronitrile,83.1332,586.97,0.386,398.65,CC[C@H](C)C#N
(S)-(+)-2-octanol,130.23032,600.92,0.733,451.05,CCCCCC[C@H](C)O
(S)-(+)-2-pentanol,88.14968,562.34,0.577,391.65,CCC[C@H](C)O
(S)-(+)-sec-butylamine,73.13808,503.5,0.331,335.1,CC[C@H](C)N
(S)-(-)-2-methyl-1-butanol,88.14968,562.34,0.577,401.05,CC[C@H](C)CO
(S)-(-)-2-methylbutylamine,87.16496,525.16,0.379,354.02,CC[C@H](C)CN
(S)-(-)-propylene oxide,58.08004,501.13,0.236,308.05,C[C@H]1CO1
(S)-(1-methylpropyl)benzene,134.22116,664.65,0.378,457.1,CC[C@H](C)c1ccccc1
(S)-2-amino-6-methylheptane,129.2456,601.45,0.5,428.15,CC(C)CCC[C@H](C)N
(S)-2-aminooctane,129.2456,601.45,0.5,437.15,CCCCCC[C@H](C)N
(S)-2-chlorooctane,148.67568,642.41,0.462,442.45,CCCCCC[C@H](C)Cl
(S)-2-heptylamine,115.21872,565.35,0.409,416.15,CCCCC[C@H](C)N
(S)-3-methyl-2-butanol,88.14968,562.34,0.577,372.19,CC(C)[C@H](C)O
"(Z,E)-1,3-cyclooctadiene",108.18328,645.0,0.286,406.55,C1CC\C=C/C=C/C1
(acetyloxy)acetic acid,118.08924,764.0,0.71,542.0,CC(=O)OCC(O)=O
(bromomethyl)benzene,171.03658,699.0,0.318,474.15,BrCc1ccccc1
(fluoromethyl)benzene,110.1309832,590.48,0.311,413.15,FCc1ccccc1
(±)-3-methylvaleric acid,116.16008,661.0,0.652,469.1,CCC(C)CC(O)=O
(±)-a-pinene,136.23704,647.0,0.341,428.75,-
(±)-b-citronellol,156.2682,656.59,0.612,496.4,-
(±)-glycidol,74.07944,630.0,0.672,433.65,-
"1,1',1''-(1-ethanyl-2-ylidene)trisbenzene",258.36292,840.0,0.612,622.0,-
"1,1'-[methylenebis(thio)]bisethane",136.28228,657.5,0.358,426.65,CCSCSCC
"1,1'-imidodiacetonitrile",95.10392,731.0,0.719,527.0,N#CCNCC#N
"1,1,1,2,2,3-hexafluoropropane",152.0392992,401.21,0.409,274.35,FCC(F)(F)C(F)(F)F
"1,1,1,2,2-pentafluoropropane",134.048836,380.11,0.305,255.5,CC(F)(F)C(F)(F)F
"1,1,1,2,3,3-hexafluoropropane",152.0392992,412.38,0.369,279.4,FC(F)C(F)C(F)(F)F
"1,1,1,2,3-pentafluoropropane",134.048836,403.84,0.33,270.0,FCC(F)C(F)(F)F
"1,1,1,2-tetrabromoethane",345.65388,800.13,0.544,523.15,BrCC(Br)(Br)Br
"1,1,1,2-tetrabromopropane",359.68076,788.99,0.552,523.15,CC(Br)C(Br)(Br)Br
"1,1,1,2-tetrachloro-2,2-difluoroethane",203.8296064,552.0,0.257,364.65,FC(F)(Cl)C(Cl)(Cl)Cl
"1,1,1,2-tetrachloro-2-fluoroethane",185.8391432,598.6,0.289,390.15,FC(Cl)C(Cl)(Cl)Cl
"1,1,1,2-tetrachloroethane",167.84868,624.0,0.242,403.65,ClCC(Cl)(Cl)Cl
"1,1,1,2-tetrachloropropane",181.87556,646.86,0.28,423.15,CC(Cl)C(Cl)(Cl)Cl
"1,1,1,2-tetrafluoroethane",102.0314928,374.18,0.327,247.08,FCC(F)(F)F
"1,1,1,2-tetrafluoropropane",116.0583728,414.81,0.277,272.15,CC(F)C(F)(F)F
"1,1,1,2-tetraiodoethane",533.65576,972.04,0.224,614.49,ICC(I)(I)I
"1,1,1,2-tetraiodopropane",547.68264,992.1,0.239,636.93,CC(I)C(I)(I)I
"1,1,1,3,3,3-hexafluoropropane",152.0392992,406.85,0.321,272.45,FC(F)(F)CC(F)(F)F
"1,1,1,3,3-pentafluoropropane",134.048836,427.16,0.33,288.45,FC(F)CC(F)(F)F
"1,1,1,3-tetrabromopropane",359.68076,797.25,0.587,533.15,BrCCC(Br)(Br)Br
"1,1,1,3-tetrachloropropane",181.87556,654.78,0.31,432.15,ClCCC(Cl)(Cl)Cl
"1,1,1,3-tetrafluoropropane",116.0583728,457.1,0.306,302.55,FCCC(F)(F)F
"1,1,1,3-tetraiodopropane",547.68264,983.52,0.268,637.37,ICCC(I)(I)I
"1,1,1-tribromo-2-methylpropane",294.81158,731.86,0.462,485.73,CC(C)C(Br)(Br)Br
"1,1,1-tribromobutane",294.81158,723.31,0.495,484.15,CCCC(Br)(Br)Br
"1,1,1-tribromodecane",378.97286,786.93,0.762,585.15,CCCCCCCCCC(Br)(Br)Br
"1,1,1-tribromododecane",407.02662,804.01,0.839,613.15,CCCCCCCCCCCC(Br)(Br)Br
"1,1,1-tribromoeicosane",519.24166,874.1,0.955,708.15,CCCCCCCCCCCCCCCCCCCC(Br)(Br)Br
"1,1,1-tribromoethane",266.75782,698.32,0.407,446.15,CC(Br)(Br)Br
"1,1,1-tribromoheptadecane",477.16102,847.65,0.96,676.15,CCCCCCCCCCCCCCCCC(Br)(Br)Br
"1,1,1-tribromoheptane",336.89222,756.89,0.632,537.15,CCCCCCC(Br)(Br)Br
"1,1,1-tribromohexadecane",463.13414,838.47,0.947,664.15,CCCCCCCCCCCCCCCC(Br)(Br)Br
"1,1,1-tribromohexane",322.86534,746.32,0.586,520.15,CCCCCC(Br)(Br)Br
"1,1,1-tribromononadecane",505.21478,864.19,0.964,697.15,CCCCCCCCCCCCCCCCCCC(Br)(Br)Br
"1,1,1-tribromononane",364.94598,777.84,0.72,570.15,CCCCCCCCC(Br)(Br)Br
"1,1,1-tribromooctadecane",491.1879,856.21,0.966,687.15,CCCCCCCCCCCCCCCCCC(Br)(Br)Br
"1,1,1-tribromooctane",350.9191,767.84,0.676,554.15,CCCCCCCC(Br)(Br)Br
"1,1,1-tribromopentadecane",449.10726,829.92,0.927,652.15,CCCCCCCCCCCCCCC(Br)(Br)Br
"1,1,1-tribromopentane",308.83846,736.13,0.541,503.15,CCCCC(Br)(Br)Br
"1,1,1-tribromopropane",280.7847,710.72,0.451,465.15,CCC(Br)(Br)Br
"1,1,1-tribromotetradecane",435.08038,821.99,0.903,640.15,CCCCCCCCCCCCCC(Br)(Br)Br
"1,1,1-tribromotridecane",421.0535,813.37,0.873,627.15,CCCCCCCCCCCCC(Br)(Br)Br
"1,1,1-tribromoundecane",392.99974,795.21,0.802,599.15,CCCCCCCCCCC(Br)(Br)Br
"1,1,1-trichloro-2,2,2-trifluoroethane",187.3753096,483.0,0.267,319.2,FC(F)(F)C(Cl)(Cl)Cl
"1,1,1-trichloro-2,2-difluoroethane",169.3848464,530.7,0.288,346.15,FC(F)C(Cl)(Cl)Cl
"1,1,1-trichloro-2-fluoroethane",151.3943832,565.0,0.25,366.0,FCC(Cl)(Cl)Cl
"1,1,1-trichloro-2-methylpropane",161.45768,631.61,0.271,415.0,CC(C)C(Cl)(Cl)Cl
"1,1,1-trichlorobutane",161.45768,614.26,0.3,407.15,CCCC(Cl)(Cl)Cl
"1,1,1-trichlorodecane",245.61896,724.19,0.561,535.15,CCCCCCCCCC(Cl)(Cl)Cl
"1,1,1-trichlorododecane",273.67272,751.55,0.638,570.15,CCCCCCCCCCCC(Cl)(Cl)Cl
"1,1,1-trichloroeicosane",385.88776,841.03,0.774,680.15,CCCCCCCCCCCCCCCCCCCC(Cl)(Cl)Cl
"1,1,1-trichloroethane",133.40392,545.0,0.218,347.23,CC(Cl)(Cl)Cl
"1,1,1-trichloroheptadecane",343.80712,808.7,0.766,643.15,CCCCCCCCCCCCCCCCC(Cl)(Cl)Cl
"1,1,1-trichloroheptane",203.53832,676.24,0.434,476.15,CCCCCCC(Cl)(Cl)Cl
"1,1,1-trichlorohexadecane",329.78024,798.28,0.75,630.15,CCCCCCCCCCCCCCCC(Cl)(Cl)Cl
"1,1,1-trichlorohexane",189.51144,657.17,0.389,454.15,CCCCCC(Cl)(Cl)Cl
"1,1,1-trichlorononadecane",371.86088,830.05,0.778,668.15,CCCCCCCCCCCCCCCCCCC(Cl)(Cl)Cl
"1,1,1-trichlorononane",231.59208,710.31,0.52,517.15,CCCCCCCCC(Cl)(Cl)Cl
"1,1,1-trichlorooctadecane",357.834,819.7,0.775,656.15,CCCCCCCCCCCCCCCCCC(Cl)(Cl)Cl
"1,1,1-trichlorooctane",217.5652,693.91,0.477,497.15,CCCCCCCC(Cl)(Cl)Cl
"1,1,1-trichloropentadecane",315.75336,787.14,0.729,616.15,CCCCCCCCCCCCCCC(Cl)(Cl)Cl
"1,1,1-trichloropentane",175.48456,635.09,0.345,430.15,CCCCC(Cl)(Cl)Cl
"1,1,1-trichloropropane",147.4308,585.43,0.256,379.15,CCC(Cl)(Cl)Cl
"1,1,1-trichlorotetradecane",301.72648,775.24,0.702,601.15,CCCCCCCCCCCCCC(Cl)(Cl)Cl
"1,1,1-trichlorotridecane",287.6996,763.82,0.672,586.15,CCCCCCCCCCCCC(Cl)(Cl)Cl
"1,1,1-trichloroundecane",259.64584,738.37,0.601,553.15,CCCCCCCCCCC(Cl)(Cl)Cl
"1,1,1-trifluoro-2-methylpropane",112.0947896,432.9,0.269,285.06,CC(C)C(F)(F)F
"1,1,1-trifluorobutane",112.0947896,425.8,0.368,289.85,CCCC(F)(F)F
"1,1,1-trifluorodecane",196.2560696,600.1,0.533,442.15,CCCCCCCCCC(F)(F)F
"1,1,1-trifluorododecane",224.3098296,638.2,0.597,481.15,CCCCCCCCCCCC(F)(F)F
"1,1,1-trifluoroeicosane",336.5248696,743.4,0.746,597.15,CCCCCCCCCCCCCCCCCCCC(F)(F)F
"1,1,1-trifluoroethane",84.0410296,345.88,0.261,225.81,CC(F)(F)F
"1,1,1-trifluoroheptadecane",294.4442296,710.6,0.713,560.15,CCCCCCCCCCCCCCCCC(F)(F)F
"1,1,1-trifluoroheptane",154.1754296,527.9,0.439,374.15,CCCCCCC(F)(F)F
"1,1,1-trifluorohexadecane",280.4173496,698.2,0.682,545.15,CCCCCCCCCCCCCCCC(F)(F)F
"1,1,1-trifluorohexane",140.1485496,498.2,0.409,348.15,CCCCCC(F)(F)F
"1,1,1-trifluorononadecane",322.4979896,733.2,0.733,585.15,CCCCCCCCCCCCCCCCCCC(F)(F)F
"1,1,1-trifluorononane",182.2291896,578.4,0.505,421.15,CCCCCCCCC(F)(F)F
"1,1,1-trifluorooctadecane",308.4711096,722.3,0.668,569.15,CCCCCCCCCCCCCCCCCC(F)(F)F
"1,1,1-trifluorooctane",168.2023096,554.5,0.467,398.15,CCCCCCCC(F)(F)F
"1,1,1-trifluoropentadecane",266.3904696,684.8,0.658,530.15,CCCCCCCCCCCCCCC(F)(F)F
"1,1,1-trifluoropentane",126.1216696,464.5,0.383,320.15,CCCCC(F)(F)F
"1,1,1-trifluoropropane",98.0679096,392.0,0.301,260.15,CCC(F)(F)F
"1,1,1-trifluorotetradecane",252.3635896,670.4,0.645,515.15,CCCCCCCCCCCCCC(F)(F)F
"1,1,1-trifluorotridecane",238.3367096,654.9,0.615,498.15,CCCCCCCCCCCCC(F)(F)F
"1,1,1-trifluoroundecane",210.2829496,620.0,0.564,462.15,CCCCCCCCCCC(F)(F)F
"1,1,1-triiodo-2-methylpropane",435.81299,874.42,0.24,566.67,CCCC(I)(I)I
"1,1,1-triiodobutane",435.81299,867.15,0.269,567.11,CCCCCCCCCC(I)(I)I
"1,1,1-triiododecane",519.97427,961.43,0.532,704.39,CCCCCCCCCCCC(I)(I)I
"1,1,1-triiodododecane",548.02803,996.02,0.611,750.15,CC(I)(I)I
"1,1,1-triiodoethane",407.75923,838.1,0.182,521.35,CCCCCCCCC(I)(I)I
"1,1,1-triiodoheptane",477.89363,912.73,0.403,635.75,CCCCCCCC(I)(I)I
"1,1,1-triiodohexane",463.86675,897.23,0.358,612.87,CCC(I)(I)I
"1,1,1-triiodononane",505.94739,944.8,0.49,681.51,CCCCCCCCCCCCCC(I)(I)I
"1,1,1-triiodooctane",491.92051,928.58,0.447,658.63,CCCCCCCCCCC(I)(I)I
"1,1,1-triiodopentane",449.83987,882.04,0.314,589.99,FCC(F)(F)C(F)F
"1,1,1-triiodopropane",421.78611,852.51,0.225,544.23,BrC(Br)C(Br)Br
"1,1,1-triiodotetradecane",576.08179,1032.58,0.679,795.91,CC(Br)(Br)C(Br)Br
"1,1,1-triiodotridecane",562.05491,1014.03,0.647,773.03,FC(Cl)(Cl)C(F)(Cl)Cl
"1,1,1-triiodoundecane",534.00115,978.49,0.573,727.27,FC(Cl)(Cl)C(Cl)Cl
"1,1,2,2,3,3-hexafluoropropane",152.0392992,417.09,0.358,283.15,ClC(Cl)C(Cl)Cl
"1,1,2,2,3-pentafluoropropane",134.048836,447.44,0.33,299.15,CC(Cl)(Cl)C(Cl)Cl
"1,1,2,2-tetrabromoethane",345.65388,824.0,0.147,516.65,FC(F)C(F)F
"1,1,2,2-tetrabromopropane",359.68076,766.37,0.552,508.15,CC(F)(F)C(F)F
"1,1,2,2-tetrachloro-1,2-difluoroethane",203.8296064,551.0,0.279,366.0,IC(I)C(I)I
"1,1,2,2-tetrachloro-1-fluoroethane",185.8391432,598.0,0.289,389.75,CC(I)(I)C(I)I
"1,1,2,2-tetrachloroethane",167.84868,645.0,0.247,418.25,CC1(C)CCCC1(C)C
"1,1,2,2-tetrachloropropane",181.87556,654.51,0.28,428.15,c1ccc(cc1)C(C(c2ccccc2)c3ccccc3)c4ccccc4
"1,1,2,2-tetrafluoroethane",102.0314928,391.8,0.266,250.15,FC(F)=C(F)C(F)(F)C(F)(F)F
"1,1,2,2-tetrafluoropropane",116.0583728,457.26,0.277,300.0,FC(F)C(F)C(F)F
"1,1,2,2-tetraiodoethane",533.65576,963.61,0.261,619.12,BrCC(Br)C(Br)Br
"1,1,2,2-tetraiodopropane",547.68264,992.1,0.239,636.93,ClCC(Cl)C(Cl)Cl
"1,1,2,2-tetramethylcyclopentane",126.24192,609.38,0.258,406.15,FCC(F)C(F)F
"1,1,2,2-tetraphenylethane",334.46068,827.0,0.732,633.15,ICC(I)C(I)I
"1,1,2,3,3,4,4,4-octafluoro-1-butene",200.0312256,392.0,0.291,277.0,CC(C)(Br)C(Br)Br
"1,1,2,3,3-pentafluoropropane",134.048836,441.38,0.37,300.0,CCC(Br)C(Br)Br
"1,1,2,3-tetrabromopropane",359.68076,798.18,0.625,538.15,BrCC(Br)Br
"1,1,2,3-tetrachloropropane",181.87556,677.77,0.342,451.15,CC(Br)C(Br)Br
"1,1,2,3-tetrafluoropropane",116.0583728,449.44,0.338,300.0,FC(F)(Cl)C(F)(Cl)Cl
"1,1,2,3-tetraiodopropane",547.68264,978.29,0.3,639.72,FC(Cl)C(F)(Cl)Cl
"1,1,2-tribromo-2-methylpropane",294.81158,758.11,0.462,503.15,FC(Cl)(Cl)CCl
"1,1,2-tribromobutane",294.81158,725.15,0.531,489.35,FC(Cl)C(Cl)Cl
"1,1,2-tribromoethane",266.75782,709.9,0.476,462.08,CC(C)(Cl)C(Cl)Cl
"1,1,2-tribromopropane",280.7847,718.16,0.486,474.15,CCC(Cl)C(Cl)Cl
"1,1,2-trichloro-1,2,2-trifluoroethane",187.3753096,487.25,0.252,320.75,ClCC(Cl)Cl
"1,1,2-trichloro-1,2-difluoroethane",169.3848464,530.0,0.288,345.65,CC(Cl)C(Cl)Cl
"1,1,2-trichloro-1-fluoroethane",151.3943832,559.78,0.264,361.15,CC(C)(F)C(F)F
"1,1,2-trichloro-2-fluoroethane",151.3943832,552.93,0.296,375.15,CCC(F)C(F)F
"1,1,2-trichloro-2-methylpropane",161.45768,635.65,0.271,417.65,FCC(F)F
"1,1,2-trichlorobutane",161.45768,628.34,0.332,420.0,CC(F)C(F)F
"1,1,2-trichloroethane",133.40392,602.0,0.259,387.0,CC(C)(I)C(I)I
"1,1,2-trichloropropane",147.4308,619.96,0.287,405.15,CCC(I)C(I)I
"1,1,2-trifluoro-2-methylpropane",112.0947896,432.9,0.269,285.06,ICC(I)I
"1,1,2-trifluorobutane",112.0947896,429.75,0.33,287.85,CC(I)C(I)I
"1,1,2-trifluoroethane",84.0410296,429.8,0.326,278.15,CC1CCCCC1(C)C
"1,1,2-trifluoropropane",98.0679096,404.56,0.285,264.97,CC1CCCC1(C)C
"1,1,2-triiodo-2-methylpropane",435.81299,874.42,0.24,566.67,CC1CC1(C)C
"1,1,2-triiodobutane",435.81299,863.14,0.301,569.46,BrC(Br)CC(Br)Br
"1,1,2-triiodoethane",407.75923,825.88,0.242,524.14,ClC(Cl)CC(Cl)Cl
"1,1,2-triiodopropane",421.78611,848.18,0.256,546.58,FC(F)CC(F)F
"1,1,2-trimethylcyclohexane",126.24192,624.87,0.267,418.35,IC(I)CC(I)I
"1,1,2-trimethylcyclopentane",112.21504,584.65,0.252,386.88,CC1(C)CCC(C)(C)C1
"1,1,2-trimethylcyclopropane",84.16128,504.34,0.222,325.59,CC1CCC(C)(C)CC1C
"1,1,3,3-tetrabromopropane",359.68076,813.01,0.625,548.15,CC(CBr)C(Br)Br
"1,1,3,3-tetrachloropropane",181.87556,661.02,0.342,440.0,CC(Br)CC(Br)Br
"1,1,3,3-tetrafluoropropane",116.0583728,449.44,0.338,300.0,BrCCC(Br)Br
"1,1,3,3-tetraiodopropane",547.68264,978.29,0.3,639.72,CC(CCl)C(Cl)Cl
"1,1,3,3-tetramethylcyclopentane",126.24192,586.82,0.258,391.11,CC(Cl)CC(Cl)Cl
"1,1,3,4-tetramethylcyclohexane",140.2688,667.0,0.274,433.15,ClCCC(Cl)Cl
"1,1,3-tribromo-2-methylpropane",294.81158,723.92,0.531,488.52,CC(CF)C(F)F
"1,1,3-tribromobutane",294.81158,723.92,0.531,488.52,CC(F)CC(F)F
"1,1,3-tribromopropane",280.7847,718.0,0.52,478.15,FCCC(F)F
"1,1,3-trichloro-2-methylpropane",161.45768,620.86,0.332,415.0,CC(CI)C(I)I
"1,1,3-trichlorobutane",161.45768,628.34,0.332,426.15,CC(I)CC(I)I
"1,1,3-trichloropropane",147.4308,635.01,0.317,418.7,ICCC(I)I
"1,1,3-trifluoro-2-methylpropane",112.0947896,429.75,0.33,287.85,CC1CCCC(C)(C)C1
"1,1,3-trifluorobutane",112.0947896,429.75,0.33,287.85,CC1CCC(C)(C)C1
"1,1,3-trifluoropropane",98.0679096,401.66,0.315,265.41,BrCCCC(Br)Br
"1,1,3-triiodo-2-methylpropane",435.81299,863.14,0.301,569.46,ClCCCC(Cl)Cl
"1,1,3-triiodobutane",435.81299,863.14,0.301,569.46,FCCCC(F)F
"1,1,3-triiodopropane",421.78611,841.02,0.286,547.02,ICCCC(I)I
"1,1,3-trimethylcyclohexane",126.24192,612.06,0.267,409.78,CC1CCC(C)(C)CC1
"1,1,3-trimethylcyclopentane",112.21504,571.3,0.252,378.04,CC1CCC(C1)(C)C
"1,1,4-tribromobutane",294.81158,718.77,0.565,488.96,C(CC(Br)Br)CBr
"1,1,4-trichlorobutane",161.45768,623.15,0.362,420.0,C(CC(Cl)Cl)CCl
"1,1,4-trifluorobutane",112.0947896,426.87,0.36,288.29,C(CC(F)F)CF
"1,1,4-triiodobutane",435.81299,856.37,0.331,569.9,C(CC(I)I)CI
"1,1,4-trimethylcyclohexane",126.24192,609.63,0.267,408.15,CC1CCC(CC1)(C)C
"1,1,cis-2,cis-3-tetramethylcyclopentane",126.24192,609.74,0.271,411.15,CCSC(C)SCC
"1,1,cis-2,cis-4-tetramethylcyclopentane",126.24192,597.88,0.271,403.15,CC(C)(C)C(Br)Br
"1,1,cis-2,trans-3-tetramethylcyclopentane",126.24192,597.88,0.271,403.15,CCC(C)C(Br)Br
"1,1,cis-2,trans-4-tetramethylcyclopentane",126.24192,597.88,0.271,403.15,CC(C)C(Br)Br
"1,1,cis-3,cis-4-tetramethylcyclopentane",126.24192,602.33,0.271,406.15,CC(C)CC(Br)Br
"1,1,cis-3,trans-4-tetramethylcyclopentane",126.24192,585.42,0.271,394.75,CCCC(Br)Br
"1,1-bis(ethylthio)ethane",150.30916,673.0,0.37,457.15,CCCCCCCCCC(Br)Br
"1,1-dibromo-2,2-dimethylpropane",229.9424,665.55,0.48,453.15,CCCCCCCCCCCCCCCCCCCCCC(Br)Br
"1,1-dibromo-2-methylbutane",229.9424,659.19,0.448,445.24,CCCCCCCCCCCC(Br)Br
"1,1-dibromo-2-methylpropane",215.91552,635.76,0.403,420.15,CCCCCCCCCCCCCCCCCCCC(Br)Br
"1,1-dibromo-3-methylbutane",229.9424,659.19,0.448,445.24,CC(Br)Br
"1,1-dibromobutane",215.91552,646.82,0.435,431.15,CCCCCCCCCCCCCCCCCCCCC(Br)Br
"1,1-dibromodecane",300.0768,741.82,0.701,550.15,CCCCCCCCCCCCCCCCC(Br)Br
"1,1-dibromodocosane",468.39936,868.14,0.866,707.15,CCCCCCC(Br)Br
"1,1-dibromododecane",328.13056,766.37,0.779,583.15,CCCCCCCCCCCCCCCC(Br)Br
"1,1-dibromoeicosane",440.3456,847.57,0.905,686.15,CCCCCC(Br)Br
"1,1-dibromoethane",187.86176,628.0,0.125,381.15,CCCCCCCCCCCCCCCCCCC(Br)Br
"1,1-dibromoheneicosane",454.37248,858.13,0.889,697.15,CCCCCCCCC(Br)Br
"1,1-dibromoheptadecane",398.26496,818.59,0.904,652.15,CCCCCCCCCCCCCCCCCC(Br)Br
"1,1-dibromoheptane",257.99616,700.05,0.571,495.15,CCCCCCCC(Br)Br
"1,1-dibromohexadecane",384.23808,808.08,0.889,639.15,CCCCCCCCCCCCCCCCCCCCCCCCC(Br)Br
"1,1-dibromohexane",243.96928,684.21,0.526,475.15,CCCCCCCCCCCCCCC(Br)Br
"1,1-dibromononadecane",426.31872,837.69,0.912,675.15,CCCCC(Br)Br
"1,1-dibromononane",286.04992,729.44,0.659,533.15,CCC(Br)Br
"1,1-dibromooctadecane",412.29184,828.45,0.911,664.15,CCCCCCCCCCCCCCCCCCCCCCCC(Br)Br