name,molweight,critical temperature (K),acentric factor,boiling point (K),SMILES
4-methyl-2-isopropyl-1-pentanol,144.2572,615.26,0.784,460.15,CCCC(C)(CC)C(CC)CC
4-methyl-2-isopropylphenol,150.22056,719.35,0.509,501.15,CCC(CC)C(C)C(CC)CC
4-methyl-2-pentanol,102.17656,574.4,0.573,404.85,CCC(CCO)C(C)C
4-methyl-2-pentanone,100.16068,574.6,0.356,389.15,CCC(C=C)C(C)C
4-methyl-2-pentene,84.16128,506.59,0.25,330.35,CCC(C(C)C)C(C)O
4-methyl-2-pentyne,82.1454,540.58,0.206,346.28,CCC(C)C(O)(CC)CC
4-methyl-2-propyl-1-hexanol,158.28408,633.27,0.852,481.15,CCCC(CC(C)CC)CO
4-methyl-2-propyl-1-pentanol,144.2572,620.94,0.813,465.15,CCCC(CC(C)C)CO
4-methyl-2-propylphenol,150.22056,780.8,0.541,547.87,CCCCCC(C)C(CC)CC
4-methyl-2-thiahexane,118.24316,610.4,0.351,413.15,CCCCC(C)C(CC)CC
4-methyl-2-thiapentane,104.21628,585.0,0.271,385.65,CCc1cc(O)ccc1C
"4-methyl-3,3-diethylheptane",170.33844,654.88,0.461,478.15,CCCC(C)C(O)CC
"4-methyl-3,4-diethylheptane",170.33844,649.4,0.461,474.15,CCCC(C)=CCC
"4-methyl-3,5-diethylheptane",170.33844,644.34,0.491,473.15,CCC(C)C(O)CC
4-methyl-3-ethyl-1-pentanol,130.23032,605.16,0.773,448.0,CCC(C)C(=O)CC
4-methyl-3-ethyl-1-pentene,112.21504,556.43,0.327,380.65,CCCCC(C)C(O)CC
4-methyl-3-ethyl-2-pentanol,130.23032,593.79,0.741,437.15,CCCCC(C)C(=O)CC
4-methyl-3-ethyl-3-hexanol,144.2572,608.58,0.748,452.0,CCCc1cc(O)ccc1C
4-methyl-3-ethyl-cis-2-pentene,112.21504,570.01,0.322,389.15,CCSC(C)CC
4-methyl-3-ethyl-trans-2-pentene,112.21504,567.52,0.322,387.45,CCCCCC(C)(CC)CCC
4-methyl-3-ethylnonane,170.33844,640.72,0.519,473.15,CCCCC(C)(CC)CCC
4-methyl-3-ethyloctane,156.31156,626.99,0.478,456.15,CCCC(C)(O)CCC
4-methyl-3-ethylphenol,136.19368,739.51,0.495,509.15,CCCC(C)(CCC)C(C)C
4-methyl-3-heptanol,130.23032,578.89,0.773,428.55,CCCCC(C)(CCC)C(C)C
4-methyl-3-heptene,112.21504,564.74,0.328,394.15,CCCCCC(C)(O)CCC
4-methyl-3-hexanol,116.20344,578.7,0.731,422.15,CCCCC(C)(O)CCC
4-methyl-3-hexanone,114.18756,588.11,0.451,409.15,CCCC(C)(CCC)CCC
4-methyl-3-octanol,144.2572,611.68,0.814,459.0,CCCCC(C)(CCC)CCC
4-methyl-3-octanone,142.24132,629.65,0.541,456.62,CCCC(C)(CCC)C(C)(C)C
4-methyl-3-propylphenol,150.22056,780.8,0.541,547.87,CCC(O)C(C)C(CC)CC
4-methyl-3-thiahexane,118.24316,601.01,0.351,406.8,CCCCC(CC)C(C)CCC
4-methyl-4-ethylnonane,170.33844,642.92,0.489,472.15,CCCC(C)C(CC)CCC
4-methyl-4-ethyloctane,156.31156,626.62,0.448,453.15,CCCC(C)C(CCC)C(C)C
4-methyl-4-heptanol,130.23032,589.8,0.738,434.25,CCCC(C)C(CCC)CCC
4-methyl-4-isopropylheptane,156.31156,630.56,0.419,453.15,CCCC(C)CC(CC)CCC
4-methyl-4-isopropyloctane,170.33844,645.29,0.461,471.15,CCCC(C)CC(CC)CC
4-methyl-4-nonanol,158.28408,637.32,0.819,482.0,CCCC(C)CCC(CC)CC
4-methyl-4-octanol,144.2572,608.26,0.78,454.15,CN(C)c1ccc(C)cc1
4-methyl-4-propylheptane,156.31156,623.85,0.448,451.15,CC(C)Nc1ccc(C)cc1
4-methyl-4-propyloctane,170.33844,637.48,0.489,468.15,CCCNc1ccc(C)cc1
4-methyl-4-tert-butylheptane,170.33844,653.12,0.403,471.15,CCCC(C)\C=C/C
4-methyl-5-ethyl-3-heptanol,158.28408,616.21,0.822,466.0,CCC(C)\C=C/C
4-methyl-5-ethylnonane,170.33844,638.02,0.519,471.15,C\C=C/C(C)C
4-methyl-5-ethyloctane,156.31156,622.87,0.478,453.15,CCCC(C)C(CC)CCC
4-methyl-5-isopropyloctane,170.33844,636.16,0.491,467.15,CC1CCC(=O)O1
4-methyl-5-propyloctane,170.33844,635.31,0.519,469.15,CCCC(C)\C=C\C
4-methyl-6-ethylnonane,170.33844,635.31,0.519,469.15,CCC(C)\C=C\C
4-methyl-6-ethyloctane,156.31156,622.87,0.478,453.15,C/C=C/C(C)C
4-methyl-7-ethylnonane,170.33844,640.72,0.519,473.15,-
"4-methyl-N,N-dimethylaniline",135.20896,705.58,0.413,484.15,Cc1ccc(CO)cc1
4-methyl-N-isopropylaniline,149.23584,690.0,0.69,493.15,Cc1ccc(cc1)c2ccccc2
4-methyl-N-propylaniline,149.23584,690.0,0.69,508.15,CCCNC1=CC=C(C=C1)C
4-methyl-cis-2-heptene,112.21504,563.49,0.347,387.15,CC1CCC=CC1
4-methyl-cis-2-hexene,98.18816,534.04,0.302,359.46,CC1CCC(N)CC1
4-methyl-cis-2-pentene,84.16128,499.0,0.244,329.53,CC1CC=CC1
4-methyl-cis-3-heptene,112.21504,574.35,0.351,395.15,CCCCCCC(C)CCC
4-methyl-gamma-butyrolactone,100.11732,727.0,0.403,480.65,Cc1ccc(Cc2ccccc2)cc1
4-methyl-trans-2-heptene,112.21504,563.49,0.347,387.15,CCCC(C)CCC
4-methyl-trans-2-hexene,98.18816,535.9,0.302,360.71,CCC(C)/C=C/C
4-methyl-trans-2-pentene,84.16128,501.0,0.255,331.75,Cc1cncc2ccccc12
4-methyl-trans-3-heptene,112.21504,574.35,0.351,395.15,CCCCCC(C)CCC
4-methylbenzenemethanol,122.1668,681.0,0.748,490.15,CCCCC(C)CCC
4-methylbiphenyl,168.23828,793.4,0.439,543.15,CC(C)CCC=O
4-methylcyclohexanol; (cis+trans),114.18756,635.0,0.685,445.15,CC(C)CCC#N
4-methylcyclohexene,96.17228,579.3,0.241,375.89,CC(C)CCC(O)=O
4-methylcyclohexylamine,113.20284,622.0,0.386,425.65,Cc1ccncc1
4-methylcyclopentene,82.1454,527.0,0.236,338.82,Cc1ccnc2ccccc12
4-methyldecane,156.31156,629.99,0.507,461.05,CC1CCSCC1
4-methyldiphenylmethane,182.26516,786.22,0.478,555.11,CCCCCCCC(C)CCC
4-methylheptane,114.23092,561.74,0.371,390.86,O=CN1CCOCC1
"4-methylhexanoic acid, (±)",130.18696,680.0,0.717,490.65,[O-][N+](=O)c1ccc(Nc2ccccc2)cc1
4-methylisoquinoline,143.1882,778.59,0.428,529.15,CCCCCC(CCC)C(O)=O
4-methylnonane,142.28468,610.0,0.465,438.85,CCCCCC(O)CCC
4-methyloctane,128.2578,587.65,0.413,415.59,CCCCC(C)CCC
4-methylpentanal,100.16068,576.34,0.433,395.15,CCCCCC(=O)CCC
4-methylpentanenitrile,97.16008,615.53,0.442,427.15,CC(C)CCC#N
4-methylpentanoic acid,116.16008,661.0,0.652,473.65,CCCCCCCCCc1ccc(O)cc1
4-methylpyridine,93.12832,646.15,0.301,418.5,CC1=CC=NC=C1
4-methylquinoline,143.1882,790.59,0.452,538.81,CCCCC#CCCC
4-methylthiacyclohexane,116.22728,669.27,0.244,431.79,CCCCC(CCC)C(O)=O
4-methylundecane,170.33844,649.36,0.548,482.15,CCCCC(O)CCC
4-morpholinecarboxaldehyde,115.132,762.0,0.393,513.15,C1COCCN1C=O
4-nitro-N-phenylaniline,214.22368,814.0,0.766,600.0,CCCCC(=O)CCC
4-nonanecarboxylic acid,172.2676,713.0,0.877,473.73,CCCCCCCCc1ccc(O)cc1
4-nonanol,144.2572,618.15,0.846,466.15,CCCC#CCCC
"4-nonanol, (S)",144.2572,614.43,0.768,465.65,OC(=O)CCC=C
4-nonanone,142.24132,629.65,0.541,460.65,CC(=O)OCCCC=C
4-nonene; (cis+trans),126.24192,593.62,0.411,419.05,CCCCCc1ccc(O)cc1
4-nonylphenol,220.35496,738.5,0.793,568.15,CCCC(CCC)=CCC
"4-nonylphenol, isomers",220.35496,738.5,0.793,568.15,CCCC(O)(CCC)CCC
4-nonyne,124.22604,621.49,0.373,427.15,CCCC(CCC)CCC
4-octanecarboxylic acid,158.24072,703.0,0.831,358.15,CCCCCC(CCC)CCC
4-octanol,130.23032,604.27,0.806,449.75,CCCCC(CCC)CCC
"4-octanol, (±)",130.23032,600.92,0.733,449.45,CCCc1ccc(O)cc1
4-octanone,128.21444,624.0,0.528,436.15,CCCc1ccncc1
4-octylphenol,206.32808,765.0,0.631,423.15,CCCC(C)c1ccc(O)cc1
4-octyne,110.19916,594.1,0.359,404.75,CCC(C)c1ccc(N)cc1
4-pentenoic acid,100.11732,676.0,0.426,461.15,CCC(C)c1ccc(O)cc1
4-pentenyl acetate,128.17108,592.33,0.432,418.15,Cc1cc(c(C)cc1O)C(C)(C)C
4-pentylphenol,164.24744,751.0,0.569,523.65,Cc1cc(cc(C)c1O)C(C)(C)C
4-propyl-3-heptene,140.2688,616.98,0.457,433.65,Cc1cc(ccc1O)C(C)(C)C
4-propyl-4-heptanol,158.28408,617.69,0.819,467.15,Cc1ccc(cc1C)C(C)(C)C
4-propylheptane,142.28468,601.0,0.444,430.66,CC(C)(C)c1ccc(N)cc1
4-propylnonane,170.33844,635.9,0.548,472.15,CCCC(CCC)C(C)(C)C
4-propyloctane,156.31156,619.2,0.507,453.15,CCCCC(CCC)C(C)(C)C
4-propylphenol,136.19368,736.87,0.496,506.65,CC(C)(C)c1ccc(O)cc1
4-propylpyridine,121.18208,653.0,0.376,458.15,CC(C)(C)c1ccc(C=C)cc1
4-sec-amylphenol,164.24744,751.0,0.569,409.65,CCCCCCCC(=O)CCC
4-sec-butylaniline,149.23584,690.0,0.69,511.15,CCCCCCC#CCCC
4-sec-butylphenol,150.22056,740.54,0.51,515.25,Oc1ccc(C=C)cc1
"4-tert-butyl-2,5-dimethylphenol",178.27432,755.67,0.59,537.15,CC[C@]12CCCC[C@H]1CCCC2
"4-tert-butyl-2,6-dimethylphenol",178.27432,755.67,0.59,521.15,CC[C@]12CCCC[C@@H]1CCCC2
4-tert-butyl-2-methylphenol,164.24744,751.0,0.569,510.15,C[C@]12CCCC[C@H]1CCCC2
4-tert-butyl-o-xylene,162.27492,697.15,0.437,478.15,C[C@]12CCCC[C@@H]1CCCC2
4-tert-butylaniline,149.23584,690.0,0.69,514.15,CC(C)(C)CCCCO
4-tert-butylheptane,156.31156,622.21,0.419,447.15,CC(C)(C)CCC=C
4-tert-butyloctane,170.33844,635.7,0.461,464.15,CCC(CO)CCC(C)(C)C
4-tert-butylphenol,150.22056,734.0,0.509,512.88,CC(O)CCC(C)(C)C
4-tert-butylstyrene,160.25904,709.0,0.422,500.0,CCC(O)(CC)CC(C)(C)C
4-undecanone,170.29508,678.01,0.653,507.63,CCC#CC(C)(C)CC
4-undecyne,152.2798,660.54,0.46,471.65,CCC(O)CC(C)(C)C
4-vinylphenol,120.15092,736.0,0.509,502.0,C\C=C/CC(C)(C)C
4a-ethyl-cis-decahydronaphthalene,166.30668,723.87,0.374,506.15,C/C=C/CC(C)(C)C
4a-ethyl-trans-decahydronaphthalene,166.30668,712.43,0.374,498.15,CCCCCC(C)(C)CCCC
4a-methyl-cis-decahydronaphthalene,152.2798,711.69,0.331,488.15,CCCCC(C)(C)CCCC
4a-methyl-trans-decahydronaphthalene,152.2798,697.11,0.331,478.15,CCCCC(Br)C(Br)CCCC
"5,5-dimethyl-1-hexanol",130.23032,617.99,0.738,455.0,CC(C)C(C)CCC(C)O
"5,5-dimethyl-1-hexene",112.21504,553.41,0.297,375.65,CCCCC(C)C(C)CCCC
"5,5-dimethyl-2-ethyl-1-hexanol",158.28408,645.72,0.788,486.0,Cc1ccc2ncccc2c1C
"5,5-dimethyl-2-hexanol",130.23032,599.88,0.706,439.15,Cc1cc(C)c2cccnc2c1
"5,5-dimethyl-3-ethyl-3-hexanol",158.28408,617.38,0.724,460.0,Cc1ccc(C)c2ncccc12
"5,5-dimethyl-3-heptyne",124.22604,621.49,0.373,421.1,NCCCCCO
"5,5-dimethyl-3-hexanol",130.23032,582.12,0.706,426.15,BrCCCC=C
"5,5-dimethyl-cis-2-hexene",112.21504,561.87,0.287,380.05,CC(C)=CCCBr
"5,5-dimethyl-trans-2-hexene",112.21504,557.73,0.287,377.25,CC=CCCBr
"5,5-dimethyldecane",170.33844,640.2,0.489,470.15,C\C=C/CCBr
"5,5-dimethylnonane",156.31156,622.47,0.448,450.15,C/C=C/CCBr
"5,6-dibromodecane",300.0768,741.82,0.701,550.15,CCCCc1cccc2CCCCc12
"5,6-dimethyl-2-heptanol",144.2572,623.04,0.782,465.15,CCCCC(CCCC)=CCCC
"5,6-dimethyldecane",170.33844,642.08,0.519,474.15,CCCCC(O)(CCCC)CCCC
"5,6-dimethylquinoline",157.21508,784.5,0.497,546.0,CCCCC(CCCC)CCCC
"5,7-dimethylquinoline",157.21508,786.16,0.497,547.15,CC(Cl)CCC=C
"5,8-dimethylquinoline",157.21508,775.1,0.497,539.15,ClCCCC=C
5-amino-1-pentanol,103.16436,626.41,0.841,494.65,CC(C)=CCCCl
5-bromo-1-pentene,149.03046,602.3,0.367,401.15,CC=CCCCl
5-bromo-2-methyl-2-pentene,163.05734,609.39,0.402,426.15,C\C=C/CCCl
5-bromo-2-pentene,149.03046,586.22,0.334,388.08,C/C=C/CCCl
5-bromo-cis-2-pentene,149.03046,600.04,0.357,398.15,CCCCC(Cl)CCCC
5-bromo-trans-2-pentene,149.03046,600.04,0.357,398.15,CCCCCC(O)CCCC
"5-butyl-1,2,3,4-tetrahydronaphthalene",188.3128,760.47,0.511,553.05,CCCCCC(=O)CCCC
5-butyl-4-nonene,182.34944,674.44,0.592,488.65,CCCCC#CCCCC
5-butyl-5-nonanol,200.36472,724.8,0.642,531.15,CCCCCCCC(=O)CCCC
5-butylnonane,184.36532,666.51,0.573,490.65,CCc1cccc2CCCCc12
5-chloro-1-hexene,118.60604,583.61,0.341,393.85,CCC(CC)CCCCO
5-chloro-1-pentene,104.57916,566.62,0.307,376.15,CCC(CC)CCC(C)C
5-chloro-2-methyl-2-pentene,118.60604,583.61,0.341,406.15,CCCCC(CC)CCC(C)O
5-chloro-2-pentene,104.57916,561.69,0.275,381.15,CCC#CC(C)(CC)CC
5-chloro-cis-2-pentene,104.57916,576.34,0.296,381.15,CCc1cc(C)cc(C)c1
5-chloro-trans-2-pentene,104.57916,576.34,0.296,381.15,CCCCCC(CC)CCCC
5-chlorononane,162.70256,661.88,0.505,470.76,CCCCC(CC)CCCC
5-decanol,158.28408,621.25,0.883,474.15,FCCCC=C
5-decanone,156.2682,656.59,0.612,477.05,C\C=C/CCF
5-decyne,138.25292,642.22,0.417,450.15,C/C=C/CCF
5-dodecanone,184.32196,687.46,0.691,519.25,ICCCC=C
"5-ethyl-1,2,3,4-tetrahydronaphthalene",160.25904,737.62,0.424,518.15,C\C=C/CCI
5-ethyl-1-heptanol,144.2572,625.91,0.846,472.0,C/C=C/CCI
5-ethyl-2-methylheptane,142.28468,606.7,0.424,432.86,CCCCC(CCCC)C(C)C
5-ethyl-2-nonanol,172.31096,696.85,0.596,498.0,CCC(C)CCCCO
5-ethyl-5-methyl-3-heptyne,138.25292,642.22,0.417,443.65,CCC#CC(C)(CC)CC
5-ethyl-m-xylene,134.22116,655.0,0.417,456.93,CCC(C)CCC=C
5-ethyldecane,170.33844,639.94,0.548,475.15,CC(C)CCCCO
5-ethylnonane,156.31156,619.2,0.507,453.15,CC(C)CCC=C
5-fluoro-1-pentene,88.1248632,504.5,0.306,335.15,CC(C)CCC#C
5-fluoro-cis-2-pentene,88.1248632,479.34,0.296,317.23,CCCCC(C)CCCCO
5-fluoro-trans-2-pentene,88.1248632,479.34,0.296,317.23,CCCC(C)CCCCO
5-iodo-1-pentene,196.03093,640.23,0.296,423.15,CCC(CO)CCC(C)C
5-iodo-cis-2-pentene,196.03093,624.39,0.286,411.1,CCC(C)CCC(C)O
5-iodo-trans-2-pentene,196.03093,624.39,0.286,411.1,CCC(C)CCC(C)=O
5-isopropylnonane,170.33844,638.02,0.519,471.15,CC(C)CCC(C)O
5-methyl-1-heptanol,130.23032,617.71,0.806,459.75,CC(C)CCC(C)=O
"5-methyl-1-heptanol, (±)",130.23032,600.92,0.733,459.75,CC(C)CCC(C)N
5-methyl-1-heptene,112.21504,560.59,0.357,386.45,CC#CCC(C)C
5-methyl-1-hexanol,116.20344,605.0,0.781,445.15,CC(C)CCC(CO)C(C)C
5-methyl-1-hexene,98.18816,528.0,0.31,358.46,CC(C)c1ccc(C)cc1O
5-methyl-1-hexyne,96.17228,552.64,0.27,365.0,CCCCC(C)CCC(C)O
5-methyl-1-nonanol,158.28408,638.09,0.883,487.0,CCCC(C)CCC(C)O
5-methyl-1-octanol,144.2572,627.23,0.846,473.0,CCCC(C)CCC(C)=O
5-methyl-2-ethyl-1-hexanol,144.2572,621.0,0.814,466.0,CCCCCc1ccc(C)cc1O
5-methyl-2-heptanol,130.23032,601.18,0.773,445.05,CCCc1ccc(C)cc1O
5-methyl-2-heptanone,128.21444,624.0,0.528,437.0,CCC(C)c1ccc(C)cc1O
5-methyl-2-hexanol,116.20344,581.44,0.731,424.15,CSCCC(C)C
5-methyl-2-hexanone,114.18756,601.0,0.434,417.95,CCC(C)CC(O)(CC)CC
5-methyl-2-hexylamine,115.21872,565.35,0.409,397.47,CCC(O)(CC)CC(C)C
5-methyl-2-hexyne,96.17228,572.5,0.25,375.61,CCCCC(C)CC(CC)CC
5-methyl-2-isopropyl-1-hexanol,158.28408,642.85,0.822,486.15,CCC(C)CC(O)CC
5-methyl-2-isopropylphenol,150.22056,725.81,0.509,505.65,CCC(C)CC(=O)CC
5-methyl-2-nonanol,158.28408,640.97,0.852,487.0,CCC=CC(C)CC
5-methyl-2-octanol,144.2572,605.01,0.814,454.0,CCC(O)CC(C)C
5-methyl-2-octanone,142.24132,629.65,0.541,456.62,CCCC(C)CCC(=O)C
5-methyl-2-pentylphenol,178.27432,755.67,0.59,524.28,CCC(=O)CC(C)C
5-methyl-2-propylphenol,150.22056,780.8,0.541,547.87,CCCCC(C)CC(O)CC
5-methyl-2-sec-butylphenol,164.24744,751.0,0.569,519.15,CCSCC(C)C
5-methyl-2-thiahexane,118.24316,607.44,0.351,411.15,CCCCC(C)C(CC)CCC
5-methyl-3-ethyl-3-heptanol,158.28408,619.15,0.788,466.0,CCCCC(C)C(O)CCC
5-methyl-3-ethyl-3-hexanol,144.2572,599.36,0.748,445.15,CCCCC(C)=CCCC
5-methyl-3-ethylnonane,170.33844,639.37,0.519,472.15,CCCC(C)C(O)CCC
5-methyl-3-heptanol,130.23032,576.46,0.773,426.75,CCCCC(C)(CC)CCCC
5-methyl-3-heptanone,128.21444,624.0,0.528,435.14,CCCCC(C)(O)CCCC
5-methyl-3-heptene,112.21504,564.74,0.328,385.15,CCC(C)C\C=C/C
5-methyl-3-hexanol,116.20344,577.32,0.731,421.15,C\C=C/CC(C)C
"5-methyl-3-hexanol, (±)",116.20344,587.2,0.709,420.15,CC\C=C/C(C)CC
5-methyl-3-hexanone,114.18756,588.11,0.451,409.15,CCC(C)C\C=C\C
5-methyl-3-nonanol,158.28408,634.39,0.852,482.0,C/C=C/CC(C)C
5-methyl-3-thiahexane,118.24316,601.86,0.351,407.37,CC/C=C/C(C)CC
5-methyl-4-ethylnonane,170.33844,639.37,0.519,472.15,CCCCCC(C)CCCC
5-methyl-4-nonanol,158.28408,634.39,0.852,482.0,CCC(C)CCCC=O
5-methyl-4-nonene,140.2688,616.98,0.457,439.96,CC(C)CCCC(O)=O
5-methyl-4-octanol,144.2572,606.35,0.814,455.0,CCCCC(C)CCCC
5-methyl-5-ethylnonane,170.33844,641.56,0.489,471.15,Cc1cccc2ncccc12
5-methyl-5-nonanol,158.28408,637.32,0.819,475.15,CCCCCCC(C)CCCC
5-methyl-cis-2-heptene,112.21504,569.31,0.347,391.15,CCCCC(O)CCCC
5-methyl-cis-2-hexene,98.18816,538.78,0.302,362.65,CCCCC(=O)CCCC
5-methyl-cis-3-heptene,112.21504,560.58,0.347,385.15,CCCCC(CCC)CCCC
5-methyl-trans-2-heptene,112.21504,569.31,0.347,391.15,CCCCCCC(O)CCCC
5-methyl-trans-2-hexene,98.18816,536.72,0.302,361.26,CCCCCCC(=O)CCCC
5-methyl-trans-3-heptene,112.21504,560.58,0.347,385.15,CCCCCC#CCCCC
5-methyldecane,156.31156,627.4,0.507,459.15,CCCCCC(C)CCCC
5-methylheptanal,128.21444,614.0,0.534,435.14,CC(C)(C)CCCCCO
5-methylhexanoic acid,130.18696,680.0,0.717,489.15,Cc1cc2cccnc2cc1C
5-methylnonane,142.28468,610.0,0.456,438.3,Cc1cc(C)c2ncccc2c1
5-methylquinoline,143.1882,782.28,0.452,533.15,NCCCCCC#N
5-methylundecane,170.33844,645.32,0.548,479.15,NCCCCCCO
5-nonanol,144.2572,620.93,0.846,468.25,BrCCCCC=C
5-nonanone,142.24132,640.0,0.514,461.6,CC(Cl)CCC=C(C)C
5-propylnonane,170.33844,633.2,0.548,470.15,CCCCCCC(O)CCCCC
5-undecanol,172.31096,696.85,0.596,502.15,CCCCCCC(=O)CCCCC
5-undecanone,170.29508,678.01,0.653,500.15,CCCCCC#CCCCCC
5-undecyne,152.2798,660.54,0.46,471.15,CCc1ccc2CCCCc2c1
"5-vinyl-2-norbornene, endo and exo",120.19428,626.0,0.249,413.65,CCC(O)CCC(CC)CC
"6,6-dimethyl-1-heptanol",144.2572,609.4,0.78,455.0,CCc1ccc2ncccc2c1
"6,7-dimethylquinoline",157.21508,785.94,0.497,547.0,CC(C)CCCCCO
"6,8-dimethylquinoline",157.21508,775.1,0.497,541.65,CC(C)CCCC=C
6-aminohexanenitrile,112.17476,697.0,0.653,503.0,CCC(C)CCCCCO
6-aminohexanol,117.19124,665.0,0.969,496.15,Cc1ccc2C=CCc2c1
6-bromo-1-hexene,163.05734,609.39,0.402,422.95,C=CCCCCBr
6-chloro-2-methyl-2-heptene,146.6598,640.48,0.43,441.98,CC(C)CCCC(C)O
6-dodecanol,186.33784,712.9,0.635,498.15,CC(C)CCCC(C)=O
6-dodecanone,184.32196,687.46,0.691,519.25,CC=CCCC(C)C
6-dodecyne,166.30668,677.2,0.503,483.15,CC(C)CCCC(C)OC(C)=O
"6-ethyl-1,2,3,4-tetrahydronaphthalene",160.25904,737.62,0.424,517.15,CCCC(C)CCCC(C)O
6-ethyl-3-octanol,158.28408,621.23,0.852,472.0,CCC(O)CCC(C)C
6-ethylquinoline,157.21508,771.14,0.498,536.0,CCC1=CC2=C(C=C1)N=CC=C2
6-methyl-1-heptanol,130.23032,619.19,0.806,460.85,CCC(=O)CCC(C)C
6-methyl-1-heptene,112.21504,558.0,0.356,386.35,CCC=CCC(C)C
6-methyl-1-octanol,144.2572,635.39,0.846,479.15,CCC(CCC(C)C)OC(C)=O
6-methyl-1H-indene,130.1894,693.5,0.332,480.15,CCC(C)CCC(O)CC
"6-methyl-2-heptanamine, (±)",129.2456,601.45,0.5,428.15,CCCC(O)CC(C)CC
6-methyl-2-heptanol,130.23032,601.18,0.773,445.05,CCCCCCCCCC(C)(O)CCCCC
6-methyl-2-heptanone,128.21444,624.0,0.528,440.15,CC(C)CCCC(C)NCCC(C)C
6-methyl-2-heptene,112.21504,564.74,0.328,390.15,C\C=C/CCC(C)C
6-methyl-2-heptyl acetate,172.2676,650.6,0.574,460.15,CC\C=C/CC(C)C
6-methyl-2-nonanol,158.28408,640.97,0.852,487.0,C/C=C/CCC(C)C
6-methyl-3-heptanol,130.23032,584.9,0.773,433.0,CC/C=C/CC(C)C
"6-methyl-3-heptanol, (±)",130.23032,600.92,0.733,442.15,CCCCC(C)CCCCC(O)=O
6-methyl-3-heptanone,128.21444,624.0,0.528,437.15,Cc1ccc2cnccc2c1
6-methyl-3-heptene,112.21504,564.74,0.328,388.15,Cc1ccc2ncccc2c1
6-methyl-3-heptyl acetate,172.2676,650.6,0.574,457.65,CCCCCC(C)CCCCC
6-methyl-3-octanol,144.2572,611.68,0.814,459.0,CCCCCc1ccc(C)cc1O
6-methyl-4-octanol,144.2572,606.35,0.814,455.0,CCCCCC(O)CCCCC
6-methyl-6-pentadecanol,242.44536,757.6,0.756,568.53,CCCCCC(=O)CCCCC
6-methyl-N-isopentyl-2-heptanamine,199.38,694.76,0.685,520.48,CC(C)(C)CCCCCCO
6-methyl-cis-2-heptene,112.21504,567.85,0.347,390.15,CCCCC(CC)CCC(=O)CC(C)C
6-methyl-cis-3-heptene,112.21504,564.94,0.347,388.15,CCCCCCC(CCCCCC)CCCCCC
6-methyl-trans-2-heptene,112.21504,567.85,0.347,390.15,CC(C)c1cccc2ccc(C)cc12
6-methyl-trans-3-heptene,112.21504,564.94,0.347,388.15,CCC(C)CCCCCCO
6-methyldecanoic acid,186.29448,725.0,0.88,489.73,CC(C)CCCCCCO
6-methylisoquinoline,143.1882,778.59,0.428,538.65,CC(C)CCCCC=C
6-methylquinoline,143.1882,789.75,0.452,538.24,Cc1cccc2C=CCc12
6-methylundecane,170.33844,645.32,0.548,479.15,CCC(C)CCCCC(C)O
6-n-amyl-m-cresol,178.27432,755.67,0.59,531.15,CC(C)CCCCC(C)O
6-undecanol,172.31096,696.85,0.596,501.15,CCC(O)CCCC(C)C
6-undecanone,170.29508,678.01,0.653,501.15,CCC(=O)CCCC(C)C
"7,7-dimethyl-1-octanol",158.28408,641.29,0.819,485.0,CCC=CCCC(C)C
7-ethyl-2-methyl-4-undecanone,212.37572,712.65,0.759,525.65,CCC#CCCC(C)C
7-hexyltridecane,268.5266,748.87,0.741,592.14,CCCC(O)CCC(C)CC
7-methyl-1-isopropylnaphthalene,184.28104,807.6,0.524,555.15,CCCC(O)CCC(C)C
7-methyl-1-nonanol,158.28408,638.09,0.883,487.0,CCCC(=O)CCC(C)C
7-methyl-1-octanol,144.2572,635.39,0.846,479.15,CC(C)CCCCCC(O)=O
7-methyl-1-octene,126.24192,579.0,0.405,408.15,Cc1ccc2cccnc2c1
7-methyl-1H-indene,130.1894,693.5,0.332,482.15,CCCCCCC(C)CCCCCC
7-methyl-2-nonanol,158.28408,640.97,0.852,487.0,CCCCCCCC=CCCCCCC
7-methyl-2-octanol,144.2572,605.01,0.814,454.0,CCCCCCC#CCCCCCC
7-methyl-3-octanol,144.2572,611.68,0.814,459.0,CCCCCCC(=O)CCCCCC
7-methyl-3-octanone,142.24132,629.65,0.541,455.65,CCc1cccc2cccnc12
7-methyl-3-octene,126.24192,593.62,0.411,415.15,Oc1cccc2cccnc12
7-methyl-3-octyne,124.22604,621.49,0.373,421.1,CC(C)CCCCCCCO
7-methyl-4-nonanol,158.28408,634.39,0.852,482.0,CC(C)CCCCCC=C
7-methyl-4-octanol,144.2572,606.35,0.814,455.0,CC(C)CCCCCC(C)O
7-methyl-4-octanone,142.24132,629.65,0.541,451.15,CCCC#CCCC(C)C
7-methyloctanoic acid,158.24072,703.0,0.831,456.91,Cc1cccc2ccncc12
7-methylquinoline,143.1882,778.95,0.452,530.88,CC(C)CCCCCCC(O)=O
7-methyltridecane,198.3922,682.75,0.61,518.35,Cc1cccc2cccnc12