name,molweight,critical temperature (K),acentric factor,boiling point (K),SMILES
methyl isopropyl sulfide,90.1894,551.0,0.259,357.9,CCCCCCCCCCCCCCCCCCCCCCNC
methyl lactate,104.10572,584.0,0.77,417.95,CCCCCCCCCCCCNC
methyl mercaptan,48.10876,469.95,0.158,279.11,CCCCCCCCCCCCCCCCCCCCNC
methyl methacrylate,100.11732,564.0,0.317,373.45,CC(O)CN
methyl nonadecyl sulfide,314.61948,832.33,0.795,645.0,CCC(C)N(C)CC
methyl nonanoate,172.2676,637.0,0.579,486.65,CCN(C)C(C)(C)C
methyl nonyl sulfide,174.35068,701.03,0.551,500.0,CCNC
methyl octadecyl sulfide,300.5926,821.75,0.794,635.0,CCCCN(C)CC
methyl octanoate,158.24072,629.0,0.596,466.05,CCN(C)CC(C)C
methyl octyl sulfide,160.3238,681.56,0.508,480.0,CCN(C)C(C)C
methyl oleate,296.49364,764.0,1.049,617.0,CCCN(C)CC
methyl pentadecyl sulfide,258.51196,787.27,0.754,597.0,CC(CCC#N)C#N
methyl pentanoate,116.16008,572.95,0.412,400.55,CCCCCCCCCCCCCCCCCCCCCNC
methyl pentyl ether,102.17656,546.49,0.344,372.0,CCCCCCCCCCCCCCCCCNC
methyl pentyl sulfide,118.24316,587.98,0.376,401.16,CCCCCCCNC
methyl phenyl sulfide,124.20652,710.76,0.327,466.15,CCCCCCCCCCCCCCCCNC
methyl propanoate,88.10632,530.6,0.347,352.6,CCCCCCNC
methyl propyl disulfide,122.2554,642.0,0.346,450.31,CNCC(C)C
methyl propyl ether,74.1228,476.25,0.277,312.2,CNC(C)C
methyl propyl ketone,86.1338,561.08,0.343,375.46,Cc1cccc2ccccc12
methyl propyl sulfate,154.187,792.0,0.162,483.69,CCCCCCCCCCCCCCCCCCCNC
methyl propyl sulfide,90.1894,565.0,0.274,368.69,CCCCCCCCCNC
methyl salicylate,152.14972,709.0,0.581,493.9,CC12CCC(C1)C=C2
methyl sec-butyl ether,88.14968,498.0,0.306,332.15,CCCCCCCCCCCCCCCCCCNC
methyl silane,46.14414,352.5,0.139,216.25,CCCCCCCCNC
methyl tert-butyl ether,88.14968,497.1,0.266,328.35,CCCCCCCCCCCCCCCNC
methyl tert-pentyl ether,102.17656,534.0,0.298,359.45,CCC(C)(C)OC
methyl tetradecyl sulfide,244.48508,775.15,0.729,583.0,CCCCCNC
methyl trans-2-butenoate,100.11732,555.5,0.355,394.15,CCCN(C)C(C)C
methyl trans-2-methyl-2-pentenoate,128.17108,592.33,0.432,447.69,Cc1ccccn1
methyl trans-2-pentenoate,114.1442,569.0,0.434,435.22,CC=Cc1ccccc1
methyl trans-3-methyl-2-pentenoate,128.17108,592.33,0.432,424.15,CCCCCCCCCCCCCCCCCCCCCCCCNC
methyl trans-3-pentenoate,114.1442,569.0,0.434,435.22,CCCCCCCCCCCCCCNC
methyl trichlorosilane,149.47842,517.0,0.263,339.55,CCCCCCCCCCCCCCCCCCCCCCCNC
methyl tridecyl sulfide,230.4582,762.23,0.7,569.0,CCCCCCCCCCCCCNC
methyl undecanoate,200.32136,667.0,0.699,523.39,CCCCCCCCCCCNC
methyl undecyl sulfide,202.40444,733.68,0.631,537.0,CCCCCCCCCCCSC
methyl vinyl ether,58.08004,437.0,0.237,278.65,F[Mo](F)(F)F
"methyl-1,1-dimethylpropylamine",101.19184,564.84,0.369,383.62,Clc1cccc2ccccc12
"methyl-1,2-dimethylpropylamine",101.19184,560.25,0.432,386.41,NCCO
methyl-1-methylbutylamine,101.19184,560.25,0.432,386.41,C1COCCN1
"methyl-2,2-dimethylpropylamine",101.19184,564.84,0.369,383.62,CCCCOO
methyl-2-methylbutylamine,101.19184,560.25,0.432,386.41,CCCCCCOC(=O)C(C)C
methyl-3-methylbutylamine,101.19184,552.62,0.432,381.15,CCCOCCCO
methyl-butylamine,87.16496,531.8,0.441,364.25,c1ccc2cc3cc4ccccc4cc3cc2c1
methyl-propylamine,73.13808,500.0,0.404,336.15,c1ccc2ccccc2c1
methyl-sec-butylamine,87.16496,519.9,0.397,351.65,CC(C)=C1CC[C@H]2C(=C1)CC[C@@H]3[C@]2(C)CCC[C@@]3(C)C(O)=O
methyl-tert-butylamine,87.16496,513.2,0.378,346.15,CC(C)(C)CCCCCC(O)=O
methylacetylene,40.06476,402.4,0.212,249.94,CC(C)(C)CCC(O)=O
methylal,76.09532,480.6,0.29,315.0,CC(C)(C)CCC(O)=O
methylamine,31.05744,430.05,0.281,266.82,CC(=O)OCC(C)(C)C
methylbiphenyl,168.23828,790.07,0.425,536.65,[Ni].[C-]#[O+].[C-]#[O+].[C-]#[O+].[C-]#[O+]
methylcyclobutane,70.1344,477.75,0.213,303.45,[F-].[F-].[F-].[F-].[F-].[Nb+5]
methylcyclohexane,98.18816,572.1,0.236,374.08,O[N+]([O-])=O
methylcyclohexanol,114.18756,635.0,0.685,440.65,-
methylcyclopentadiene,80.12952,541.0,0.238,345.93,N#CCN(CC#N)CC#N
methylcyclopentadiene dimer,160.25904,675.0,0.423,473.0,[O-][N+](=O)c1ccccc1
methylcyclopentane,84.16128,532.79,0.23,344.96,CC[N+]([O-])=O
methylcyclopropane,56.10752,437.13,0.198,273.88,[NH2]
methyldecylamine,171.32624,666.6,0.66,499.35,[O-][N+]=O
methyldiethylamine,87.16496,507.56,0.347,339.15,[O-][N+](=O)O[N+]([O-])=O
methyldiisopropylamine,115.21872,561.82,0.376,385.15,[O-][N+](=O)[N+]([O-])=O
methyldioctylamine,255.48752,744.03,0.818,591.95,ClN(Cl)Cl
methyldipropylamine,115.21872,556.46,0.437,387.25,FN(F)F
methyldocosylamine,339.6488,815.11,0.77,665.15,[O-][N+](=O)N=O
methyldodecylamine,199.38,696.8,0.726,534.15,C[N+]([O-])=O
methyleicosylamine,311.59504,791.58,0.822,643.15,ClN=O
methylethanolamine,75.1106,630.0,0.586,431.15,FN=O
methylethyl-sec-butylamine,115.21872,544.53,0.406,376.15,[O-][N+]#N
methylethyl-tert-butylamine,115.21872,563.23,0.344,383.15,CCCCCCCCCCCCCCCCCCC=O
methylethylamine,59.1112,475.0,0.319,309.15,CCCCCCCCCCCCCCCCCCC
methylethylbutylamine,115.21872,560.63,0.437,390.15,CCCCCCCCCCCCCCCCCCC#N
methylethylisobutylamine,115.21872,550.32,0.406,380.15,CCCCCCCCCCCCCCCCCCC(O)=O
methylethylisopropylamine,101.19184,538.62,0.361,364.65,CCCCCCCCCCCCCCCCCCCN
methylethylpropylamine,101.19184,534.36,0.392,364.65,CCCCCCCCCCCCCCCCCCCc1ccccc1
methylglutaronitrile,108.143,742.0,0.638,536.15,CCCCCCCCCCCCCCCCCCCC1CCCCC1
methylheneicosylamine,325.62192,803.02,0.8,654.15,CCCCCCCCCCCCCCCCCCCC1CCCC1
methylheptadecylamine,269.5144,755.1,0.868,607.15,CCCCCCCCC
methylheptylamine,129.2456,609.8,0.547,438.15,CCCCCCCCC#N
methylhexadecylamine,255.48752,745.0,0.842,594.15,CCCCCCCCC(O)=O
methylhexylamine,115.21872,586.8,0.509,415.15,CCCCCCCCCOC(C)=O
methylisobutylamine,87.16496,515.2,0.403,350.15,CCCCCCCCCOC(=O)CCC
methylisopropylamine,73.13808,487.6,0.589,323.55,CCCCCCCCCOC=O
methylnaphthalene,142.2004,766.52,0.347,515.15,CCCCCCCCCS
methylnonadecylamine,297.56816,773.4,0.913,632.15,CCCCCCCCCOC(=O)CC
methylnonylamine,157.29936,649.4,0.624,480.15,CCCCCCCCCN
methylnorbornene,108.18328,600.0,0.211,390.15,CCCCCCCCCc1ccccc1
methyloctadecylamine,283.54128,764.5,0.898,620.15,CCCCCCCCCC1CCCCC1
methyloctylamine,143.27248,630.6,0.586,459.85,CCCCCCCCCC1CCCC1
methylpentadecylamine,241.46064,734.3,0.814,580.15,CCCCCCCCCc1ccccc1O
"methylpentadiene, isomers",82.1454,526.51,0.25,349.15,CCCCCc1ccccc1O
methylpentylamine,101.19184,561.0,0.473,390.55,Cc1ccccc1Br
methylpropylisopropylamine,115.21872,558.79,0.406,386.0,Nc1ccccc1Cl
methylpyridine,93.12832,637.38,0.284,418.15,OC(=O)c1ccccc1Cl
methylstyrene,118.1784,658.75,0.334,442.65,[O-][N+](=O)c1ccccc1Cl
methyltetracosylamine,367.70256,837.69,0.708,684.15,Oc1ccccc1Cl
methyltetradecylamine,227.43376,722.7,0.792,566.15,Cc1ccccc1Cl
methyltricosylamine,353.67568,826.65,0.732,675.15,Cc1ccccc1O
methyltridecylamine,213.40688,710.2,0.755,550.15,CC(C)c1ccccc1C
methylundecylamine,185.35312,682.3,0.692,517.15,Brc1ccccc1Br
mixo-dichlorobutane,127.01292,598.51,0.288,393.94,Clc1ccccc1Cl
molybdenum fluoride,209.9304192,473.0,0.189,307.15,Fc1ccccc1F
monochloronaphthalene,162.61828,785.0,0.383,532.15,CCc1ccccc1N
monoethanolamine,61.08372,678.2,0.447,444.15,CCc1ccccc1O
morpholine,87.1216,618.0,0.355,401.15,CCc1ccccc1C=C
n-butylhydroperoxide,90.1222,565.0,0.866,405.0,CCc1ccccc1S
n-hexyl isobutyrate,172.2676,637.0,0.579,473.73,CCc1ccccc1C
n-propoxypropanol (mixed isomers),118.17596,600.0,0.817,481.98,Cc1ccccc1F
naphthacene,228.29328,987.0,0.565,716.15,CCCCCCCc1ccccc1O
naphthalene,128.17352,748.4,0.302,491.14,Cc1ccccc1C=C
neoabietic acid,302.457,812.0,0.86,631.0,Cc1ccccc1S
neodecanoic acid,172.2676,713.0,0.877,528.15,Nc1ccccc1[N+]([O-])=O
neoheptanoic acid,130.18696,662.0,0.635,475.65,COc1ccccc1[N+]([O-])=O
neoheptanoic acid,130.18696,680.0,0.717,427.81,Cc1ccccc1[N+]([O-])=O
neopentyl acetate,130.18696,577.0,0.403,401.15,Nc1ccccc1N
nickel carbonyl,170.735,508.4,0.056,315.65,c1ccc(cc1)c2ccccc2c3ccccc3
niobium (V) fluoride,187.898396,737.0,0.241,502.15,Cc1ccccc1N
nitric acid,63.01288,520.0,0.7144,356.15,Cc1ccccc1C
nitric oxide,30.00614,180.15,0.5829,121.38,CCCCCC=CC
nitrilotrisacetonitrile,134.1406,823.0,0.924,623.0,CCCC=CCCC
nitrobenzene,123.11124,719.0,0.449,483.95,C[Si](C)(C)O[Si](C)(C)O[Si](C)(C)O[Si](C)(C)O[Si](C)(C)O[Si](C)(C)O[Si](C)(C)O[Si](C)(C)C
nitroethane,75.06724,593.0,0.38,387.22,CCCCCCCCCCCCCCCCCC=O
nitrogen,28.01348,126.2,0.0377,77.34,CCCCCCCCCCCCCCCCCC
nitrogen dioxide,46.00554,431.15,0.8511,294.15,CCCCCCCCCCCCCCCCCC#N
nitrogen pentoxide,108.01048,515.51,0.266,306.15,CCCCCCCCCCCCCCCCCC(O)=O
nitrogen tetraoxide,92.01108,431.15,0.8533,294.31,CCCCCCCCCCCCCCCCCCN
nitrogen trichloride,120.36484,564.0,0.199,344.15,CCCCCCCCCCCCCCCCCCc1ccccc1
nitrogen trifluoride,71.0019496,234.0,0.12,144.09,CCCCCCCCCCCCCCCCCCC1CCCCC1
nitrogen trioxide,76.01168,425.0,0.4312,275.15,CCCCCCCCCCCCCCCCCCC1CCCC1
nitromethane,61.04036,588.15,0.348,374.35,FC(=C(F)C(F)(F)F)C(F)(F)F
nitrosyl chloride,65.45884,440.65,0.3005,267.77,FC1(F)C(F)(F)C(F)(F)C1(F)F
nitrosyl fluoride,49.0045432,352.67,0.405,213.25,FC1=C(F)C(F)(F)C(F)(F)C1(F)F
nitrous oxide,44.01288,309.57,0.1408,184.67,FC(F)(F)C(F)(F)C(F)(F)F
nonadecanal,282.51012,774.21,0.861,623.15,C[Si]1(C)O[Si](C)(C)O[Si](C)(C)O[Si](C)(C)O1
nonadecane,268.5266,758.0,0.852,603.05,C[Si](C)(C)O[Si](C)(C)O[Si](C)(C)C
nonadecanenitrile,279.50952,801.62,0.839,647.15,CCCCCCCC
nonadecanoic acid,298.50952,812.0,1.063,659.15,CCCCCCCCCCCCCCCCCCC(=O)O
nonadecylamine,283.54128,786.3,0.937,643.15,CCCCCCCC#N
nonadecylbenzene,344.62436,841.84,0.778,683.15,CCCCCCCC(O)=O
nonadecylcyclohexane,350.672,843.31,0.729,685.15,CCCCCCCCOC(C)=O
nonadecylcyclopentane,336.64512,829.99,0.746,673.15,CCCCCCCCCCCCCCCCCCCC1CCCC1
nonane,128.2578,594.6,0.444,423.97,CCCCCCCCOC(=O)CCC
nonanenitrile,139.24072,677.19,0.605,497.55,CCCCCCCCOC=O
nonanoic acid,158.24072,710.7,0.772,528.75,CCCCCCCCS
nonyl acetate,186.29448,661.0,0.716,497.1,CCCCCCCCOC(=O)CCCC
nonyl butanoate,214.34824,706.7,0.57,535.15,CCCCCCCCOC(=O)CC
nonyl formate,172.2676,656.0,0.65,487.0,CCCCCCCCN
nonyl mercaptan,160.3238,681.0,0.531,492.95,CCCCCCCCc1ccccc1
nonyl propanoate,200.32136,693.1,0.716,532.18,CCCCCCCCC1CCCCC1
nonylamine,143.27248,648.0,0.617,475.35,CCCCCCCCC1CCCC1
nonylbenzene,204.35556,741.0,0.638,555.2,O=[Os](=O)(=O)=O
nonylcyclohexane,210.4032,737.79,0.577,554.66,OC(=O)C(O)=O
nonylcyclopentane,196.37632,716.95,0.566,535.26,o1ccnc1
nonylphenol,220.35496,770.0,0.88,590.76,O
o-amylphenol,164.24744,751.0,0.569,486.71,[O-][O+]=O
o-bromotoluene,171.03658,699.0,0.318,454.85,Nc1ccc(cc1)N=Nc2ccccc2
o-chloroaniline,127.57308,722.0,0.421,481.99,Nc1ccc(cc1)c2ccccc2
o-chlorobenzoic acid,156.5682,792.0,0.664,560.15,Nc1ccc(Nc2ccccc2)cc1
o-chloronitrobenzene,157.556,757.0,0.486,519.0,Nc1ccc(cc1)c2ccc(N)cc2
o-chlorophenol,128.5578,675.0,0.437,447.53,O=C1C=CC(=O)C=C1
o-chlorotoluene,126.58528,656.0,0.304,432.3,Cc1ccc(Br)cc1
o-cresol,108.13992,697.55,0.434,464.15,Nc1ccc(Cl)cc1
o-cymene,134.22116,657.0,0.366,451.33,FC(F)(F)c1ccc(Cl)cc1
o-dibromobenzene,235.90576,761.0,0.293,498.15,[O-][N+](=O)c1ccc(Cl)cc1
o-dichlorobenzene,147.00316,705.0,0.219,453.57,Oc1ccc(Cl)cc1
o-diethylbenzene,134.22116,668.0,0.34,456.61,Cc1ccc(Cl)cc1
o-difluorobenzene,114.0945664,554.46,0.32,364.66,Cc1ccc(O)cc1
o-dinitrobenzene,168.10884,831.0,0.669,592.0,CC(C)(c1ccccc1)c2ccc(O)cc2
o-ethylaniline,121.18208,704.0,0.462,482.65,CC(C)c1ccc(C)cc1
o-ethylphenol,122.1668,703.0,0.476,477.67,Brc1ccc(Br)cc1
o-ethylstyrene,132.20528,672.78,0.376,460.44,Clc1ccc(Cl)cc1
o-ethylthiophenol,138.2334,722.65,0.374,483.15,CCc1ccc(CC)cc1
o-ethyltoluene,120.19428,650.0,0.335,438.33,Fc1ccc(F)cc1
o-fluorotoluene,110.1309832,590.48,0.311,388.15,CC(C)c1ccc(cc1)C(C)C
o-heptylphenol,192.3012,763.83,0.626,430.15,CC(C)c1ccc(cc1)C(C)C.O[O-]
o-methylstyrene,118.1784,659.0,0.341,442.96,CN(C)c1ccc(C=O)cc1
o-methylthiophenol,124.20652,714.96,0.329,467.35,[O-][N+](=O)c1ccc(cc1)[N+]([O-])=O
o-nitroaniline,138.12592,784.0,0.741,558.0,CCc1ccc(N)cc1
o-nitroanisole,153.13752,782.0,0.561,546.15,CCc1ccc(O)cc1
o-nitrotoluene,137.13812,720.0,0.482,495.64,CCc1ccc(C=C)cc1
o-phenylenediamine,108.143,781.0,0.539,530.15,CCc1ccc(S)cc1
o-terphenyl,230.30916,857.0,0.551,609.15,CCc1ccc(C)cc1
o-toluic acid,136.15032,751.0,0.657,532.0,Cc1ccc(F)cc1
o-toluidine,107.1552,716.5,0.384,473.49,Oc1ccc(O)cc1
o-xylene,106.1674,630.3,0.31,417.58,Oc1ccc(C=O)cc1
oct-2-ene,112.21504,564.74,0.328,398.05,CCCCCC=CC
oct-4-ene,112.21504,564.74,0.328,398.0,CC1CCC(CC1)C(C)(C)OO
octadecamethyloctasiloxane,607.30656,688.9,0.984,583.6,COc1ccc(O)cc1
octadecanal,268.48324,762.31,0.858,610.15,Cc1ccc(C=C)cc1
octadecane,254.49972,747.0,0.811,589.86,Cc1ccc(S)cc1
octadecanenitrile,265.48264,790.72,0.84,635.15,Nc1ccc(cc1)[N+]([O-])=O
octadecanoic acid,284.48264,804.0,1.036,648.35,Cc1ccc(cc1)[N+]([O-])=O
octadecylamine,269.5144,777.4,0.905,630.15,CCOc1ccc(N)cc1
octadecylbenzene,330.59748,834.0,0.951,673.15,Nc1ccc(N)cc1
octadecylcyclohexane,336.64512,833.93,0.742,675.15,c1ccc(cc1)c2ccc(cc2)c3ccccc3
octadecylcyclopentane,322.61824,819.7,0.756,662.15,CCC(C)(C)c1ccc(O)cc1
octafluoro-2-butene,200.0312256,392.0,0.292,270.36,CCc1ccc(cc1)C(C)(C)C
octafluorocyclobutane,200.0312256,388.37,0.356,267.17,CC(C)(C)c1ccc(O)c(O)c1
octafluorocyclopentene,212.0422256,465.23,0.11,300.15,CC(C)(C)CC(C)(C)c1ccc(O)cc1
octafluoropropane,188.0202256,345.05,0.327,236.4,Cc1ccc(C=O)cc1
octamethylcyclotetrasiloxane,296.61816,586.5,0.589,448.15,Cc1ccc(cc1)C(O)=O
octamethyltrisiloxane,236.53386,564.4,0.533,425.7,Cc1ccc(N)cc1
octane,114.23092,568.7,0.4,398.83,Cc1ccc(C)cc1
"octane, mixture",114.23092,562.52,0.336,376.22,CC(C)C1=CC2=C(CC1)C3(C)CCCC(C)(C3CC2)C(O)=O
octanenitrile,125.21384,661.13,0.562,478.35,CC1OC(C)OC(C)O1
octanoic acid,144.21384,694.26,0.771,512.85,CCCCCCCC(=O)O
octyl acetate,172.2676,652.0,0.651,484.45,Clc1cc(Cl)c(Cl)c(Cl)c1Cl
octyl alcohol; mixed isomers,130.23032,600.92,0.733,468.15,ClC(Cl)C(Cl)(Cl)Cl
octyl butanoate,200.32136,691.8,0.53,517.15,FC(Cl)(Cl)C(Cl)(Cl)Cl
octyl formate,158.24072,645.0,0.587,471.95,CCCCCCCCCCCCCCCCCCCCCCCCC
octyl mercaptan,146.29692,664.0,0.473,472.19,CCCCCCCCCCCCCCCCCCCCCCCCCN
octyl pentanoate,214.34824,682.0,0.759,534.75,CCCCCCCCCCCCCCC=O
octyl propanoate,186.29448,677.2,0.621,501.15,CCCCCCCCCCCCCCC
octylamine,129.2456,627.0,0.569,452.75,CCCCCCCCCCCCCCC#N
octylbenzene,190.32868,729.0,0.572,537.55,CCCCCCCCCCCCCCC(O)=O
octylcyclohexane,196.37632,723.61,0.538,536.76,CCCCCCCCCCCCCCCN
octylcyclopentane,182.34944,702.06,0.526,516.86,CCCCCCCCCCCCCCCc1ccccc1
osmium tetroxide,254.1976,678.0,0.178,408.15,CCCCCCCCCCCCCCCC1CCCC1
oxalic acid,90.03548,804.0,0.918,569.0,CCc1cc(CC)c(CC)c(CC)c1CC
oxazole,69.06296,554.0,0.231,342.65,FC(F)C(F)(F)F
oxygen,31.9988,154.58,0.0222,90.19,FC(F)=C(F)OC(F)(F)C(F)(F)F
ozone,47.9982,261.0,0.2119,161.85,Cc1cc(C)c(C)c(C)c1C
p-aminoazobenzene,197.23956,877.0,0.635,633.0,Cc1c(C)c(C)c(O)c(C)c1C
p-aminodiphenyl,169.22608,867.0,0.542,610.0,CCCCC=O
p-aminodiphenylamine,184.24076,867.0,0.694,627.15,O=CCCCC=O
p-benzidine,184.24076,929.0,0.735,674.85,CCCCC(O)=O
p-benzoquinone,108.09656,683.0,0.495,454.0,CCCCCO
p-bromotoluene,171.03658,699.0,0.318,457.5,CCCCCOC(C)=O
p-chloroaniline,127.57308,754.0,0.421,503.65,CCCCCOC(=O)CCC
p-chlorobenzotrifluoride,180.5566696,601.0,0.372,411.85,CCCCCOC=O
p-chloronitrobenzene,157.556,751.0,0.491,515.15,CCCCCCC(=O)OCCCCC
p-chlorophenol,128.5578,738.0,0.485,493.11,CCCCCOC(=O)CCCCC
p-chlorotoluene,126.58528,660.0,0.312,435.65,CCCCCS
p-cresol,108.13992,704.65,0.513,475.13,CCCCCCCC(=O)OCCCCC
p-cumylphenol,212.29144,834.0,0.689,608.15,CCCCCOC(=O)CCCC
p-cymene,134.22116,652.0,0.374,450.28,CCCCCOC(=O)CC
p-dibromobenzene,235.90576,761.0,0.293,491.65,CCCCCN
p-dichlorobenzene,147.00316,684.75,0.285,447.21,CCCCCc1ccccc1
p-diethylbenzene,134.22116,657.9,0.403,456.94,CCCCCC1CCCCC1
p-difluorobenzene,114.0945664,556.0,0.299,362.0,CCCCCC1CCCC1
p-diisopropylbenzene,162.27492,689.0,0.39,483.65,O[Cl](=O)(=O)=O
p-diisopropylbenzene hydroperoxide,194.27372,810.0,0.928,616.0,F[Cl](=O)(=O)=O
p-dimethylaminobenzaldehyde,149.19248,832.0,0.527,588.0,COC(F)(F)C(F)(F)F
p-dinitrobenzene,168.10884,803.0,0.662,571.5,FC(F)(F)C(F)(C(F)(F)F)C(F)(F)F
p-ethylaniline,121.18208,695.58,0.433,490.65,FC(F)=C(C(F)(F)F)C(F)(F)F
p-ethylphenol,122.1668,716.45,0.515,491.14,CC(=O)OO
p-ethylstyrene,132.20528,680.1,0.376,465.45,c1ccc2c(c1)ccc3ccccc23
p-ethylthiophenol,138.2334,724.15,0.374,484.15,CCOc1ccccc1
p-ethyltoluene,120.19428,640.2,0.367,435.16,Oc1ccccc1
p-fluorotoluene,110.1309832,590.48,0.311,389.76,O=COCCc1ccccc1
p-hydroquinone,110.11244,823.0,0.682,559.15,C1OC1COc2ccccc2
p-hydroxybenzaldehyde,122.12344,844.0,0.617,583.15,O=C=Nc1ccccc1
p-isopropylenylstyrene,144.21628,741.0,0.407,515.0,Sc1ccccc1
p-menthane-8-hydroperoxide,172.2676,711.0,0.901,532.0,c1ccc(cc1)c2ccccc2.c3ccc(cc3)c4ccccc4
p-methoxyphenol,124.13932,761.0,0.536,517.85,NNc1ccccc1
p-methylstyrene,118.1784,665.0,0.318,445.93,ClC(Cl)=O
p-methylthiophenol,124.20652,716.03,0.329,468.05,P
p-nitroaniline,138.12592,851.0,0.782,609.15,[PH4+].[I-]
p-nitrotoluene,137.13812,743.0,0.425,511.65,CC1=CC=C(C=C1)[N+](=O)[O-]
p-phenetidine,137.18148,754.0,0.553,528.0,ClP(Cl)Cl
p-phenylenediamine,108.143,796.0,0.539,540.0,F[P](F)(F)(Cl)Cl
p-terphenyl,230.30916,908.0,0.643,655.15,[PH4+3]=S
p-tert-amylphenol,164.24744,752.0,0.564,535.65,P
p-tert-butyl ethylbenzene,162.27492,684.0,0.435,485.25,-
p-tert-butylcatechol,166.21996,776.0,0.734,558.0,Cl[P](Cl)(Cl)=O
p-tert-octylphenol,206.32808,765.0,0.633,563.6,Cl[P](Cl)(Cl)(Cl)Cl
p-tolualdehyde,120.15092,698.0,0.442,477.15,[PH2].ClSCl
p-toluic acid,136.15032,773.0,0.661,548.15,BrP(Br)Br
p-toluidine,107.1552,693.15,0.472,473.57,C1OCc2ccccc12
p-xylene,106.1674,616.2,0.322,411.51,OC(=O)c1ccccc1C(O)=O
palustric acid,302.457,789.0,0.917,616.0,O=C1OC(=O)c2ccccc12
paraldehyde,132.15948,579.0,0.437,397.15,CC(C)C1=CCC2C(=C1)CCC3C2(C)CCCC3(C)C(O)=O.CC(C)(N)CO
pentaborane,65.14234,547.13,0.134,336.15,C1CNCCN1
pentachlorobenzene,250.33744,791.17,0.493,549.15,CCC
pentachloroethane,202.29344,665.0,0.246,433.03,CCC(O)=O
pentachlorofluoroethane,220.2839032,624.0,0.245,411.05,OCC#C
pentacosane,352.68788,812.0,1.105,675.05,ClCC#C
pentacosylamine,367.70256,871.97,0.708,712.15,CC=CC1=CCCCC1
pentadecanal,226.4026,728.48,0.811,570.15,CCC=O
pentadecane,212.41908,708.0,0.686,543.83,CCC(=O)OC(=O)CC
pentadecanenitrile,223.402,756.38,0.805,595.15,CCC#N
pentadecanoic acid,242.402,775.0,0.959,612.05,CCCOC(=O)CC(C)C
pentadecylamine,227.43376,746.5,0.787,586.15,CCCOC(C)=O
pentadecylbenzene,288.51684,809.0,0.857,639.15,CCCOC(=O)C=C
pentadecylcyclohexane,294.56448,803.46,0.733,640.16,CCCO
pentadecylcyclopentane,280.5376,780.0,0.833,625.0,CCCOC(=O)c1ccccc1
pentaethylbenzene,218.38244,731.0,0.67,550.16,CCCOC(=O)CCC
pentafluoroethane,120.021956,339.17,0.305,225.04,CCCCSCCC
pentafluoroethyl trifluorovinyl ether,216.0306256,401.0,0.449,281.15,CCCCCCCCCC(=O)OCCC
pentamethylbenzene,148.24804,719.15,0.464,504.55,CCCCCCCCCCSCCC
pentamethylphenol,164.24744,751.0,0.569,540.15,CCCCCCCCCCCCSCCC
pentanal,86.1338,566.1,0.347,376.15,CCCOC=O
pentanedial,100.11732,660.0,0.537,461.15,CCCCCCCCCCCCCCCCCSCCC
pentanoic acid,102.1332,639.16,0.698,458.95,CCCCCCC(=O)OCCC
pentanol,88.14968,562.34,0.577,403.15,CCCCCCCSCCC
pentyl acetate,130.18696,599.9,0.448,421.15,CCCCCCCCCCCCCCCCSCCC
pentyl butanoate,158.24072,636.7,0.449,458.15,CCCCCC(=O)OCCC
pentyl formate,116.16008,576.0,0.528,406.6,CCCCCCSCCC
pentyl heptanoate,200.32136,667.0,0.699,518.55,CCCOC(=O)C(C)C
pentyl hexanoate,186.29448,652.0,0.639,499.15,CCCN=C=O
pentyl mercaptan,104.21628,598.0,0.321,399.79,CCC[N+]#[C-]
pentyl octanoate,214.34824,682.0,0.759,533.35,CCCOC(C)C
pentyl pentanoate,172.2676,637.0,0.579,476.85,CCCS
pentyl propanoate,144.21384,617.8,0.474,441.9,CCCOC(=O)C(C)=C
pentylamine,87.16496,555.0,0.407,377.65,CCCCCCCCCSCCC
pentylbenzene,148.24804,679.9,0.438,478.61,CCCCCCCC(=O)OCCC
pentylcyclohexane,154.29568,674.01,0.413,476.87,CCCCCCCCSCCC
pentylcyclopentane,140.2688,647.49,0.398,453.76,CCCCCCCCCCCCCCCSCCC
perchloric acid,100.45824,631.0,0.0498,385.0,CCCCC(=O)OCCC
perchloryl fluoride,102.4493032,368.4,0.1726,226.49,CCCCCSCCC
perfluoroethyl methyl ether,150.048236,444.03,0.389,278.74,CCCSc1ccccc1
perfluoroisobutane,238.028032,386.35,0.372,261.15,CCCOC(=O)CC
perfluoroisobutene,200.0312256,392.0,0.291,280.15,CCCCCCCCCCCCCCSCCC