name,molweight,critical temperature (K),acentric factor,boiling point (K),SMILES,ECFP_Bits
5-methyl-3-hexanone,114.18756,588.11,0.451,409.15,CCC(C)C\C=C\C,01000100100000000000000000010000010000100000000000000010000000000000000000001000100000010000000000000000000000000000000000000000
5-methyl-3-nonanol,158.28408,634.39,0.852,482.0,C/C=C/CC(C)C,01000100000000000000000000010000010000000000000000000011000000000000000000001000100000000000000000000000000000000000000000000000
5-methyl-3-thiahexane,118.24316,601.86,0.351,407.37,CC/C=C/C(C)CC,01000000100000000000000100010000010000100000001000000010000000000000000000001000100000001000000000000000000000000000000000000000
5-methyl-4-ethylnonane,170.33844,639.37,0.519,472.15,CCCCCC(C)CCCC,01000000000000000000000000110000010000100000000000000000000000000000000000000000100000010000000000010000000000000000000100000000
5-methyl-4-nonanol,158.28408,634.39,0.852,482.0,CCC(C)CCCC=O,01000000101000000100000000010000010000100000000000000010000000000000000000000000100000010000000000010000100010000000000100000000
5-methyl-4-nonene,140.2688,616.98,0.457,439.96,CC(C)CCCC(O)=O,01000100001000000000000000011000010000010000000000000001000000000000000001000000100000000000000000010000000000000000000100000100
5-methyl-4-octanol,144.2572,606.35,0.814,455.0,CCCCC(C)CCCC,01000000000000000000000000110000010000100000000000000000000000000000000000000000100000010000000000010000000000000000000100000000
5-methyl-5-ethylnonane,170.33844,641.56,0.489,471.15,Cc1cccc2ncccc12,00000000000000000000000000000000010000000000100000000000001000001000000001100100010000100000000000001000000000010000000000100000
5-methyl-5-nonanol,158.28408,637.32,0.819,475.15,CCCCCCC(C)CCCC,01000000000000000000000000110000010000100000000000000000000000000000000000000000100000010000000000010000000000000000000100000000
5-methyl-cis-2-heptene,112.21504,569.31,0.347,391.15,CCCCC(O)CCCC,01000000000000000000000000100000010000110000000000000000000000000000000000000000100000000000000000010000000000000000001100000000
5-methyl-cis-2-hexene,98.18816,538.78,0.302,362.65,CCCCC(=O)CCCC,00000000001000000000000010101000010000110000000000000000000000000000000000000000100000000000000000000000000000000000000100000100
5-methyl-cis-3-heptene,112.21504,560.58,0.347,385.15,CCCCC(CCC)CCCC,01000000000010000000000000100000010000100000000000000000000000000000000000000000100000000000000000010000000000000000000100000000
5-methyl-trans-2-heptene,112.21504,569.31,0.347,391.15,CCCCCCC(O)CCCC,01000000000000000000000000100000010000110000000000000000000000000000000000000000100000000000000000010000000000000000001100000000
5-methyl-trans-2-hexene,98.18816,536.72,0.302,361.26,CCCCCCC(=O)CCCC,00000000001000000000000010101000010000110000000000000000000000000000000000000000100000000000000000000000000000000000000100000100
5-methyl-trans-3-heptene,112.21504,560.58,0.347,385.15,CCCCCC#CCCCC,00000000000000000000000100100100011000100000000000000000000000000000000000000000100000000000000000000000000000000000000100000000
5-methyldecane,156.31156,627.4,0.507,459.15,CCCCCC(C)CCCC,01000000000000000000000000110000010000100000000000000000000000000000000000000000100000010000000000010000000000000000000100000000
5-methylheptanal,128.21444,614.0,0.534,435.14,CC(C)(C)CCCCCO,00000000100000000000000000001000010000010000000000000000000000000000000000000000100000000100001000000100000000000010000100000000
5-methylhexanoic acid,130.18696,680.0,0.717,489.15,Cc1cc2cccnc2cc1C,00000000000000000000000000000000010000000000100000000000001000011000000001100000010000100000000000001000000100010000000000100000
5-methylnonane,142.28468,610.0,0.456,438.3,Cc1cc(C)c2ncccc2c1,00000000000000000000000000000001010000000000100000000000001010011000000000100000010000100000000000001000000100010000000000100000
5-methylquinoline,143.1882,782.28,0.452,533.15,NCCCCCC#N,00000000000000000001001000000100001000000000000010000000000000000100000000000000100001000000000000000000100000000000000100000000
5-methylundecane,170.33844,645.32,0.548,479.15,NCCCCCCO,00000000000000000001000000000000000000010000000010000000000000000000000000000000100001000100001000000000000000000000000100000000
5-nonanol,144.2572,620.93,0.846,468.25,BrCCCCC=C,00000000000000000100000000000000000000000000100000000010000000000000000000000000100000101000000000000000000001010000000100010000
5-nonanone,142.24132,640.0,0.514,461.6,CC(Cl)CCC=C(C)C,01000000000000000111000000010000010000010000000000000010000000000000000000000000100000010000000100010000010000000000000001000000
5-propylnonane,170.33844,633.2,0.548,470.15,CCCCCCC(O)CCCCC,01000000000000000000000000100000010000110000000000000000000000000000000000000000100000000000000000010000000000000000001100000000
5-undecanol,172.31096,696.85,0.596,502.15,CCCCCCC(=O)CCCCC,00000000001000000000000010101000010000110000000000000000000000000000000000000000100000000000000000000000000000000000000100000100
5-undecanone,170.29508,678.01,0.653,500.15,CCCCCC#CCCCCC,00000000000000000000000100100100011000100000000000000000000000000000000000000000100000000000000000000000000000000000000100000000
5-undecyne,152.2798,660.54,0.46,471.15,CCc1ccc2CCCCc2c1,00001001000000000000000000000010010000100000000000000000000000000000000000100000110010100010000000001000000100000000000000000000
"5-vinyl-2-norbornene, endo and exo",120.19428,626.0,0.249,413.65,CCC(O)CCC(CC)CC,01000000100010000000000000000000010000110000000000000000000000000000000000000000100000000000000000010000000000000000001000000000
"6,6-dimethyl-1-heptanol",144.2572,609.4,0.78,455.0,CCc1ccc2ncccc2c1,00000001000000000000000000000000010000100000100000000000000000011000000001100000110000100010000000001000000100000000000000100000
"6,7-dimethylquinoline",157.21508,785.94,0.497,547.0,CC(C)CCCCCO,01000000000000000000000000010000010000010000000000000001000000000000000000000000100000000100001000010000000000000000000100000000
"6,8-dimethylquinoline",157.21508,775.1,0.497,541.65,CC(C)CCCC=C,01000000000000000100000000010000010000000000100000000011000000000000000000000000100000100000000000010000000001000000000100000000
6-aminohexanenitrile,112.17476,697.0,0.653,503.0,CCC(C)CCCCCO,01000000100000000000000000010000010000110000000000000000000000000000000000000000100000010100001000010000000000000000000100000000
6-aminohexanol,117.19124,665.0,0.969,496.15,Cc1ccc2C=CCc2c1,00000000000000000000000000000011010100001000000000000000001000000000000000000000010010100000000000001000100101000000000000000000
6-bromo-1-hexene,163.05734,609.39,0.402,422.95,C=CCCCCBr,00000000000000000100000000000000000000000000100000000010000000000000000000000000100000101000000000000000000001010000000100010000
6-chloro-2-methyl-2-heptene,146.6598,640.48,0.43,441.98,CC(C)CCCC(C)O,01000000000000000100000000010000010000010000000000000001000000000000000000000000100000000000000000010000000000000000000100000000
6-dodecanol,186.33784,712.9,0.635,498.15,CC(C)CCCC(C)=O,01000000001000100000000000011000010000010000000000000001000000000000000000000000100000000000000000010000000000000000000101000100
6-dodecanone,184.32196,687.46,0.691,519.25,CC=CCCC(C)C,01000000000000000100000000010000010000000000000000000011000000000000000000001000100000000000000000010000000000000000000000000000
6-dodecyne,166.30668,677.2,0.503,483.15,CC(C)CCCC(C)OC(C)=O,01000000001100000000000000010000110000010000000000000001000000000000010000000000100000000000000000010000000000000000000101000100
"6-ethyl-1,2,3,4-tetrahydronaphthalene",160.25904,737.62,0.424,517.15,CCCC(C)CCCC(C)O,01000000000000000100000000110000010000110000000000000000000000000000000000000000100000010000000000010000000000000000000100000000
6-ethyl-3-octanol,158.28408,621.23,0.852,472.0,CCC(O)CCC(C)C,01000000100000000000000000010000010000110000000000000001000000000000000000000000100000000000000000010000000000000000001000000000
6-ethylquinoline,157.21508,771.14,0.498,536.0,CCC1=CC2=C(C=C1)N=CC=C2,00000001000000000000000000000000010000100000100000000000000000011000000001100000110000100010000000001000000100000000000000100000
6-methyl-1-heptanol,130.23032,619.19,0.806,460.85,CCC(=O)CCC(C)C,01100000001000000000000010011000010000110000000000000001000000000000000000000000100000000000000000010000000000000000000000000100
6-methyl-1-heptene,112.21504,558.0,0.356,386.35,CCC=CCC(C)C,01000100000000000000000000010000010000100000001000000011000000000000000000001000100000000000000000000000000000000000000000000000
6-methyl-1-octanol,144.2572,635.39,0.846,479.15,CCC(CCC(C)C)OC(C)=O,01000000101100000000000000010000010000110000000000000001000000000000010000000000100000000000000000010000000000000000000001000100
6-methyl-1H-indene,130.1894,693.5,0.332,480.15,CCC(C)CCC(O)CC,01000000100000000000000000010000010000110000000000000000000000000000000000000000100000010000000000010000000000000000001000000000
"6-methyl-2-heptanamine, (±)",129.2456,601.45,0.5,428.15,CCCC(O)CC(C)CC,01000000100000000000000000110000010000111000000000000000000000000000000000000000100000010000000000010000000000000000001000000000
6-methyl-2-heptanol,130.23032,601.18,0.773,445.05,CCCCCCCCCC(C)(O)CCCCC,00000000100000000000000000101000010000110000000000000000000000000000000000000000100000000000000000000000000000000011100100000000
6-methyl-2-heptanone,128.21444,624.0,0.528,440.15,CC(C)CCCC(C)NCCC(C)C,11000000000000100000000000010000010000000000000000000001000000000000000000000000100000000000000000110000000000000000000100000000
6-methyl-2-heptene,112.21504,564.74,0.328,390.15,C\C=C/CCC(C)C,01000000000000000100000000010000010000000000000000000011000000000000000000001000100000000000000000010000000000000000000000000000
6-methyl-2-heptyl acetate,172.2676,650.6,0.574,460.15,CC\C=C/CC(C)C,01000100000000000000000000010000010000100000001000000011000000000000000000001000100000000000000000000000000000000000000000000000
6-methyl-2-nonanol,158.28408,640.97,0.852,487.0,C/C=C/CCC(C)C,01000000000000000100000000010000010000000000000000000011000000000000000000001000100000000000000000010000000000000000000000000000
6-methyl-3-heptanol,130.23032,584.9,0.773,433.0,CC/C=C/CC(C)C,01000100000000000000000000010000010000100000001000000011000000000000000000001000100000000000000000000000000000000000000000000000
"6-methyl-3-heptanol, (±)",130.23032,600.92,0.733,442.15,CCCCC(C)CCCCC(O)=O,01000100001000000000000000111000010000110000000000000000000000000000000001000000100000010000000000010000000000000000000100000100
6-methyl-3-heptanone,128.21444,624.0,0.528,437.15,Cc1ccc2cnccc2c1,00000000000000000000000000000001010000000000000000000000001000010001000000100000010000100000000000001000000100000000000000100001
6-methyl-3-heptene,112.21504,564.74,0.328,388.15,Cc1ccc2ncccc2c1,00000000000000000000000000000001010000000000100000000000001000011000000001100000010000100000000000001000000100000000000000100000
6-methyl-3-heptyl acetate,172.2676,650.6,0.574,457.65,CCCCCC(C)CCCCC,01000000000000000000000000110000010000100000000000000000000000000000000000000000100000010000000000010000000000000000000100000000
6-methyl-3-octanol,144.2572,611.68,0.814,459.0,CCCCCc1ccc(C)cc1O,00000000000000000000000000100001010000110000000000000000001000000010010100000000110000100001000000001000000100000000000100000000
6-methyl-4-octanol,144.2572,606.35,0.814,455.0,CCCCCC(O)CCCCC,01000000000000000000000000100000010000110000000000000000000000000000000000000000100000000000000000010000000000000000001100000000
6-methyl-6-pentadecanol,242.44536,757.6,0.756,568.53,CCCCCC(=O)CCCCC,00000000001000000000000010101000010000110000000000000000000000000000000000000000100000000000000000000000000000000000000100000100
6-methyl-N-isopentyl-2-heptanamine,199.38,694.76,0.685,520.48,CC(C)(C)CCCCCCO,00000000100000000000000000001000010000010000000000000000000000000000000000000000100000000100001000000100000000000010000100000000
6-methyl-cis-2-heptene,112.21504,567.85,0.347,390.15,CCCCC(CC)CCC(=O)CC(C)C,01000000101010000000000010111000010000110000000000000001000000000000000000000000100000000000000000010000000000000000000100000100
6-methyl-cis-3-heptene,112.21504,564.94,0.347,388.15,CCCCCCC(CCCCCC)CCCCCC,01000000000010000000000000100000010000100000000000000000000000000000000000000000100000000000000000010000000000000000000100000000
6-methyl-trans-2-heptene,112.21504,567.85,0.347,390.15,CC(C)c1cccc2ccc(C)cc12,01000000000000000000000000010001010000000000000000000000001000011000000000000100010000100000000000001000000101000000000000000000
6-methyl-trans-3-heptene,112.21504,564.94,0.347,388.15,CCC(C)CCCCCCO,01000000100000000000000000010000010000110000000000000000000000000000000000000000100000010100001000010000000000000000000100000000
6-methyldecanoic acid,186.29448,725.0,0.88,489.73,CC(C)CCCCCCO,01000000000000000000000000010000010000010000000000000001000000000000000000000000100000000100001000010000000000000000000100000000
6-methylisoquinoline,143.1882,778.59,0.428,538.65,CC(C)CCCCC=C,01000000000000000100000000010000010000000000100000000011000000000000000000000000100000100000000000010000000001000000000100000000
6-methylquinoline,143.1882,789.75,0.452,538.24,Cc1cccc2C=CCc12,00000000000000000000000000000010010100001000000000000000001000001000000000000000010000100000000000001000110001010000000000000000
6-methylundecane,170.33844,645.32,0.548,479.15,CCC(C)CCCCC(C)O,01000000100000000100000000010000010000110000000000000000000000000000000000000000100000010000000000010000000000000000000100000000
6-n-amyl-m-cresol,178.27432,755.67,0.59,531.15,CC(C)CCCCC(C)O,01000000000000000100000000010000010000010000000000000001000000000000000000000000100000000000000000010000000000000000000100000000
6-undecanol,172.31096,696.85,0.596,501.15,CCC(O)CCCC(C)C,01000000100000000000000000010000010000110000000000000001000000000000000000000000100000000000000000010000000000000000001100000000
6-undecanone,170.29508,678.01,0.653,501.15,CCC(=O)CCCC(C)C,01100000001000000000000010011000010000110000000000000001000000000000000000000000100000000000000000010000000000000000000100000100
"7,7-dimethyl-1-octanol",158.28408,641.29,0.819,485.0,CCC=CCCC(C)C,01000000000000000100000000010000010000100000001000000011000000000000000000001000100000000000000000010000000000000000000000000000
7-ethyl-2-methyl-4-undecanone,212.37572,712.65,0.759,525.65,CCC#CCCC(C)C,01000000000000000000000100010100011100100000000000000001000000000000000000000000100000000000000000010000000000000000000000000000
7-hexyltridecane,268.5266,748.87,0.741,592.14,CCCC(O)CCC(C)CC,01000000100000000000000000110000010000110000000000000000000000000000000000000000100000010000000000010000000000000000001000000000
7-methyl-1-isopropylnaphthalene,184.28104,807.6,0.524,555.15,CCCC(O)CCC(C)C,01000000000000000000000000110000010000110000000000000001000000000000000000000000100000000000000000010000000000000000001000000000
7-methyl-1-nonanol,158.28408,638.09,0.883,487.0,CCCC(=O)CCC(C)C,01000000001000000000000010111000010000110000000000000001000000000000000000000000100000000000000000010000000000000000000000000100
7-methyl-1-octanol,144.2572,635.39,0.846,479.15,CC(C)CCCCCC(O)=O,01000100001000000000000000011000010000010000000000000001000000000000000001000000100000000000000000010000000000000000000100000100
7-methyl-1-octene,126.24192,579.0,0.405,408.15,Cc1ccc2cccnc2c1,00000000000000000000000000000001010000000000100000000000001000011000000001100000010000100000000000001000000100000000000000100000
7-methyl-1H-indene,130.1894,693.5,0.332,482.15,CCCCCCC(C)CCCCCC,01000000000000000000000000110000010000100000000000000000000000000000000000000000100000010000000000010000000000000000000100000000
7-methyl-2-nonanol,158.28408,640.97,0.852,487.0,CCCCCCCC=CCCCCCC,00000000000000000100000000100000010000100000000000000010000000000000000000001000100000000000000000000000000000000000000100000000
7-methyl-2-octanol,144.2572,605.01,0.814,454.0,CCCCCCC#CCCCCCC,00000000000000000000000100100100011000100000000000000000000000000000000000000000100000000000000000000000000000000000000100000000
7-methyl-3-octanol,144.2572,611.68,0.814,459.0,CCCCCCC(=O)CCCCCC,00000000001000000000000010101000010000110000000000000000000000000000000000000000100000000000000000000000000000000000000100000100
7-methyl-3-octanone,142.24132,629.65,0.541,455.65,CCc1cccc2cccnc12,00000001000000000000000000000000010000100000100000000000000010011000010000100000110000100000000000001000000000000000000000100000
7-methyl-3-octene,126.24192,593.62,0.411,415.15,Oc1cccc2cccnc12,00000000000000000000000000000000000000010000100000000000000010011010000100100000010000100000000000001000000000000000000000100000
7-methyl-3-octyne,124.22604,621.49,0.373,421.1,CC(C)CCCCCCCO,01000000000000000000000000010000010000010000000000000001000000000000000000000000100000000100001000010000000000000000000100000000
7-methyl-4-nonanol,158.28408,634.39,0.852,482.0,CC(C)CCCCCC=C,01000000000000000100000000010000010000000000100000000011000000000000000000000000100000100000000000010000000001000000000100000000
7-methyl-4-octanol,144.2572,606.35,0.814,455.0,CC(C)CCCCCC(C)O,01000000000000000100000000010000010000010000000000000001000000000000000000000000100000000000000000010000000000000000000100000000
7-methyl-4-octanone,142.24132,629.65,0.541,451.15,CCCC#CCCC(C)C,01000000000000000000000100110100011000100000000000000001000000000000000000000000100000000000000000010000000000000000000000000000
7-methyloctanoic acid,158.24072,703.0,0.831,456.91,Cc1cccc2ccncc12,00000000000000000000000000000000010000000000000000000000001000011001000000100100010000100000000000001000000000010000000000100001
7-methylquinoline,143.1882,778.95,0.452,530.88,CC(C)CCCCCCC(O)=O,01000100001000000000000000011000010000010000000000000001000000000000000001000000100000000000000000010000000000000000000100000100
7-methyltridecane,198.3922,682.75,0.61,518.35,Cc1cccc2cccnc12,00000000000000000000000000000000010000000000100000000000001010011000000000100000010000100000000000001000000000010000000000100000
7-pentadecene,210.4032,706.17,0.663,549.62,OCCCCCCCC=C,00000000000000000100000000000000000000010000100000000010000000000000000000000000100000100100001000000000000001000000000100000000
7-tetradecyne,194.36044,697.74,0.622,535.6,CCCCCCCC(=O)CCCCCCC,00000000001000000000000010101000010000110000000000000000000000000000000000000000100000000000000000000000000000000000000100000100
7-tridecanone,198.34884,707.26,0.727,534.15,CCCCCCCC=CCCCCCC,00000000000000000100000000100000010000100000000000000010000000000000000000001000100000000000000000000000000000000000000100000000
8-ethylquinoline,157.21508,761.28,0.498,529.15,CCCCCCCCCC(CCCCCCCC)c1ccc(C)cc1,01000000000000000000000000100001010000100000000000000000001000000000000000000000110001100000000000011000100000000000000100000000
8-hydroxyquinoline,145.16072,788.0,0.522,540.0,CCCCCCCCCCCC(CCCCCCCC)C1CCCCC1,01001000000000000000000000100010010000100000010000000000001000000000000000000000100000000000000000010000000000000100000100010000
8-methyl-1-nonanol,158.28408,644.0,0.913,493.0,CCCCCCCCC(O)CCCCCCCC,01000000000000000000000000100000010000110000000000000000000000000000000000000000100000000000000000010000000000000000001100000000
8-methyl-1-nonene,140.2688,619.0,0.452,443.65,CCCCCCCCC(=O)CCCCCCCC,00000000001000000000000010101000010000110000000000000000000000000000000000000000100000000000000000000000000000000000000100000100
8-methyl-2-nonanol,158.28408,640.97,0.852,487.0,CCCCCCCCC(CCCCCC)CCCCCCCC,01000000000010000000000000100000010000100000000000000000000000000000000000000000100000000000000000010000000000000000000100000000
8-methyl-4-nonyne,138.25292,642.22,0.417,443.65,CCCCCCCCC(C)CCCCCCCC,01000000000000000000000000110000010000100000000000000000000000000000000000000000100000010000000000010000000000000000000100000000
8-methylisoquinoline,143.1882,778.59,0.428,531.15,CCCCCCCCCC(C)CCCCCCCC(O)=O,01000100001000000000000000111000010000110000000000000000000000000000000001000000100000010000000000010000000000000000000100000100
8-methylnonanoic acid,172.2676,713.0,0.877,473.73,CCCCCCCCC=CCCCCCCCC,00000000000000000100000000100000010000100000000000000010000000000000000000001000100000000000000000000000000000000000000100000000