name,molweight,critical temperature (K),acentric factor,boiling point (K),SMILES,ECFP_Bits
"1,1,2-trichloro-1,2-difluoroethane",169.3848464,530.0,0.288,345.65,CC(Cl)C(Cl)Cl,01000000000000000011000000010000010000010000000000000000000000000000000000000000000000000000000000000000000000000000000001000000
"1,1,2-trichloro-1-fluoroethane",151.3943832,559.78,0.264,361.15,CC(C)(F)C(F)F,01000000100000000000000000100000010000000000010000000000000000000000000000000000000000000000000000000000000000010010010000000000
"1,1,2-trichloro-2-fluoroethane",151.3943832,552.93,0.296,375.15,CCC(F)C(F)F,01000000100000000000000000101000010000100000000000000000000000000000000000000000100000000000000000000000000000000000000000100000
"1,1,2-trichloro-2-methylpropane",161.45768,635.65,0.271,417.65,FCC(F)F,01000000100000000000000000100000000000000000000000000000000000000000000000000000100000010100000000000000000000000000000000000000
"1,1,2-trichlorobutane",161.45768,628.34,0.332,420.0,CC(F)C(F)F,01000000100000000000000000111000010000000000000000000000000000000000000000000000000000000000000100000000000000000000000000000000
"1,1,2-trichloroethane",133.40392,602.0,0.259,387.0,CC(C)(I)C(I)I,01000000100000001000010000000000010000000000000000000000000000000000000000000000000000000000000000000000000000000010000000011000
"1,1,2-trichloropropane",147.4308,619.96,0.287,405.15,CCC(I)C(I)I,01001000100000001000010000000000010000100000000000000000000000000000000000000000100000000000000000000000100000000000000000000000
"1,1,2-trifluoro-2-methylpropane",112.0947896,432.9,0.269,285.06,ICC(I)I,01000100000000001000010000000000000000000000000000000000000000000100000000000000100000010000000000000000000000000000000000000000
"1,1,2-trifluorobutane",112.0947896,429.75,0.33,287.85,CC(I)C(I)I,01001000000000001000010000010000010000000000000000000000000000000000000000000000000100000000000000000000000000000000000000000000
"1,1,2-trifluoroethane",84.0410296,429.8,0.326,278.15,CC1CCCCC1(C)C,00001000001000000000000000000110010010000000010000000000000000000000000000000000100000000000000000000000001000000000000000110000
"1,1,2-trifluoropropane",98.0679096,404.56,0.285,264.97,CC1CCCC1(C)C,00001000001000000000000000000110010010000000010000000000000000000000000000000000100000000000000000000000001000000000000000110000
"1,1,2-triiodo-2-methylpropane",435.81299,874.42,0.24,566.67,CC1CC1(C)C,00000000000000000000000000000110010010010000000000000000000000000000000000000000100000000000000000000000001000000000000000110000
"1,1,2-triiodobutane",435.81299,863.14,0.301,569.46,BrC(Br)CC(Br)Br,01000000000000000000000000000000000000001000000000000000000000100000000000000000100000001000000000000000001000000000000000000000
"1,1,2-triiodoethane",407.75923,825.88,0.242,524.14,ClC(Cl)CC(Cl)Cl,01000000000000000011000000000000000000001000000000000000000000000000000000000000100000000000000000000000100000000000000000000000
"1,1,2-triiodopropane",421.78611,848.18,0.256,546.58,FC(F)CC(F)F,01000000100000000000000000100000000000001000000000000000000000000000000000000000100000000100000000000000000000000000000000000000
"1,1,2-trimethylcyclohexane",126.24192,624.87,0.267,418.35,IC(I)CC(I)I,01000000000000001000010000000000000000001000000000000000000000000100000000000000100000000000000000000000000000000000000000000000
"1,1,2-trimethylcyclopentane",112.21504,584.65,0.252,386.88,CC1(C)CCC(C)(C)C1,00000000001000000000000000000010010010000000000000000000000000000000000000000001000000000000000000000000000010000000000000100000
"1,1,2-trimethylcyclopropane",84.16128,504.34,0.222,325.59,CC1CCC(C)(C)CC1C,00000000001000000000000000000110010010010000010000000000000000000001000000000001000000000000000000000000000000000000000000110000
"1,1,3,3-tetrabromopropane",359.68076,813.01,0.625,548.15,CC(CBr)C(Br)Br,01000000000000000000000000010000010000000000000000000000000000100000000000000000100000001001000000000000000000000000000001010000
"1,1,3,3-tetrachloropropane",181.87556,661.02,0.342,440.0,CC(Br)CC(Br)Br,01000000000000000000000000010000010000001000000000000000000000100000000000000000100000001000000000000000001000000000000000000000
"1,1,3,3-tetrafluoropropane",116.0583728,449.44,0.338,300.0,BrCCC(Br)Br,01000000000000000000000000000000000000000000000000000000000000100000000000000000100000001000000000010000001000010000000000010000
"1,1,3,3-tetraiodopropane",547.68264,978.29,0.3,639.72,CC(CCl)C(Cl)Cl,01000000000000000011000000010000010000010000000000000000000000000000000000000000100001000000000000000000000000000000010001000000
"1,1,3,3-tetramethylcyclopentane",126.24192,586.82,0.258,391.11,CC(Cl)CC(Cl)Cl,01000000000000000011000000010000010000001000000000000000000000000000000000000000100000010000000000000000100000000000000000000000
"1,1,3,4-tetramethylcyclohexane",140.2688,667.0,0.274,433.15,ClCCC(Cl)Cl,01000000000000000011000000000000000000000000000010000000000000000000000000000000100001000000000000010000100000000000000000000000
"1,1,3-tribromo-2-methylpropane",294.81158,723.92,0.531,488.52,CC(CF)C(F)F,01000000100000000000000000111000010000000000000000000000000000000000000000000000100000010000000000000000000000000000000001000000
"1,1,3-tribromobutane",294.81158,723.92,0.531,488.52,CC(F)CC(F)F,01000000100000000000000000110000011000001000000000000000000000000000000000000000100000000100000000000000000000000000000000000000
"1,1,3-tribromopropane",280.7847,718.0,0.52,478.15,FCCC(F)F,01000000100000000000000000100000000000000000000000000000000000000000000000000000100001010100000000010000000000000000000000000000
"1,1,3-trichloro-2-methylpropane",161.45768,620.86,0.332,415.0,CC(CI)C(I)I,01001100000000001000010000010000010000000000000000000000000000000000000000000000100000010000000000000000000000000000000001000000
"1,1,3-trichlorobutane",161.45768,628.34,0.332,426.15,CC(I)CC(I)I,01000000000000001000010000010000010000001000000000000010000000000100000000000000100000000000000000000000000000000000000000000000
"1,1,3-trichloropropane",147.4308,635.01,0.317,418.7,ICCC(I)I,01000000000000001000010000000000000000000000000000000000000000001100000000000000100000010000000000010000000000000000000000000000
"1,1,3-trifluoro-2-methylpropane",112.0947896,429.75,0.33,287.85,CC1CCCC(C)(C)C1,00001000001000000000000000000110010010010000010000000000000000000000000000000001000000000000000000000000000000000000000000111000
"1,1,3-trifluorobutane",112.0947896,429.75,0.33,287.85,CC1CCC(C)(C)C1,00000000001000000000000000000110010010010000010000000000000000000000000000000001000000000000000000000000000000000000000000111000
"1,1,3-trifluoropropane",98.0679096,401.66,0.315,265.41,BrCCCC(Br)Br,01000000000000000000000000000000000000000000000000000000000000100000000000000000100000001000000000010000001000010000000100010000
"1,1,3-triiodo-2-methylpropane",435.81299,863.14,0.301,569.46,ClCCCC(Cl)Cl,01000000000000000011000000000000000000000000000010000000000000000000000000000000100001000000000000010000100000000000000100000000
"1,1,3-triiodobutane",435.81299,863.14,0.301,569.46,FCCCC(F)F,01000000100000000000000000100000000000000000000000000000000000000000000000000000100001010100000000010000000000000000000100000000
"1,1,3-triiodopropane",421.78611,841.02,0.286,547.02,ICCCC(I)I,01000000000000001000010000000000000000000000000000000000000000001100000000000000100000010000000000010000000000000000000100000000
"1,1,3-trimethylcyclohexane",126.24192,612.06,0.267,409.78,CC1CCC(C)(C)CC1,00000000001000000000000000000110010010000000010000000000000000000000000000000001000000000000000000000000000000000000000000111000
"1,1,3-trimethylcyclopentane",112.21504,571.3,0.252,378.04,CC1CCC(C1)(C)C,00000000001000000000000000000110010010010000010000000000000000000000000000000001000000000000000000000000000000000000000000111000
"1,1,4-tribromobutane",294.81158,718.77,0.565,488.96,C(CC(Br)Br)CBr,01000000000000000000000000000000000000000000000000000000000000100000000000000000100000001000000000010000001000010000000100010000
"1,1,4-trichlorobutane",161.45768,623.15,0.362,420.0,C(CC(Cl)Cl)CCl,01000000000000000011000000000000000000000000000010000000000000000000000000000000100001000000000000010000100000000000000100000000
"1,1,4-trifluorobutane",112.0947896,426.87,0.36,288.29,C(CC(F)F)CF,01000000100000000000000000100000000000000000000000000000000000000000000000000000100001010100000000010000000000000000000100000000
"1,1,4-triiodobutane",435.81299,856.37,0.331,569.9,C(CC(I)I)CI,01000000000000001000010000000000000000000000000000000000000000001100000000000000100000010000000000010000000000000000000100000000
"1,1,4-trimethylcyclohexane",126.24192,609.63,0.267,408.15,CC1CCC(CC1)(C)C,00000000001000000000000000000110010010000000010000000000000000000000000000000001000000000000000000000000000000000000000000111000
"1,1,cis-2,cis-3-tetramethylcyclopentane",126.24192,609.74,0.271,411.15,CCSC(C)SCC,01000000000000000000000000010000110001100000000000000000000000000000000000000001100000000000000000000000000000000000100000000000
"1,1,cis-2,cis-4-tetramethylcyclopentane",126.24192,597.88,0.271,403.15,CC(C)(C)C(Br)Br,01000000100000000000000000000000010000000000000000000000000000100000000000000000000000001000000000000000000001000010000000100000
"1,1,cis-2,trans-3-tetramethylcyclopentane",126.24192,597.88,0.271,403.15,CCC(C)C(Br)Br,01000000100000000000000000010000010000100000000000000000000000100000000000000000100000001000000000000000000000000000000001000000
"1,1,cis-2,trans-4-tetramethylcyclopentane",126.24192,597.88,0.271,403.15,CC(C)C(Br)Br,01000000000000000000000000010000010000000000000000000000000000100000000000000000100000001000000000000000000001000000000000000000
"1,1,cis-3,cis-4-tetramethylcyclopentane",126.24192,602.33,0.271,406.15,CC(C)CC(Br)Br,01000000000000000000000000010000010000001000000000000001000000100000000000000000100000001000000000000000001000000000000000000000
"1,1,cis-3,trans-4-tetramethylcyclopentane",126.24192,585.42,0.271,394.75,CCCC(Br)Br,01000000000000000000000000100000010000100000000000000000000000100000000000000000100000001000000000010000001000000000000000000000
"1,1-bis(ethylthio)ethane",150.30916,673.0,0.37,457.15,CCCCCCCCCC(Br)Br,01000000000000000000000000100000010000100000000000000000000000100000000000000000100000001000000000010000001000000000000100000000
"1,1-dibromo-2,2-dimethylpropane",229.9424,665.55,0.48,453.15,CCCCCCCCCCCCCCCCCCCCCC(Br)Br,01000000000000000000000000100000010000100000000000000000000000100000000000000000100000001000000000010000001000000000000100000000
"1,1-dibromo-2-methylbutane",229.9424,659.19,0.448,445.24,CCCCCCCCCCCC(Br)Br,01000000000000000000000000100000010000100000000000000000000000100000000000000000100000001000000000010000001000000000000100000000
"1,1-dibromo-2-methylpropane",215.91552,635.76,0.403,420.15,CCCCCCCCCCCCCCCCCCCC(Br)Br,01000000000000000000000000100000010000100000000000000000000000100000000000000000100000001000000000010000001000000000000100000000
"1,1-dibromo-3-methylbutane",229.9424,659.19,0.448,445.24,CC(Br)Br,01000000000000000000000000010000010000000000000000000000000000100000000000000000000000001000000000000000000000000000000000100000
"1,1-dibromobutane",215.91552,646.82,0.435,431.15,CCCCCCCCCCCCCCCCCCCCC(Br)Br,01000000000000000000000000100000010000100000000000000000000000100000000000000000100000001000000000010000001000000000000100000000
"1,1-dibromodecane",300.0768,741.82,0.701,550.15,CCCCCCCCCCCCCCCCC(Br)Br,01000000000000000000000000100000010000100000000000000000000000100000000000000000100000001000000000010000001000000000000100000000
"1,1-dibromodocosane",468.39936,868.14,0.866,707.15,CCCCCCC(Br)Br,01000000000000000000000000100000010000100000000000000000000000100000000000000000100000001000000000010000001000000000000100000000
"1,1-dibromododecane",328.13056,766.37,0.779,583.15,CCCCCCCCCCCCCCCC(Br)Br,01000000000000000000000000100000010000100000000000000000000000100000000000000000100000001000000000010000001000000000000100000000
"1,1-dibromoeicosane",440.3456,847.57,0.905,686.15,CCCCCC(Br)Br,01000000000000000000000000100000010000100000000000000000000000100000000000000000100000001000000000010000001000000000000100000000
"1,1-dibromoethane",187.86176,628.0,0.125,381.15,CCCCCCCCCCCCCCCCCCC(Br)Br,01000000000000000000000000100000010000100000000000000000000000100000000000000000100000001000000000010000001000000000000100000000
"1,1-dibromoheneicosane",454.37248,858.13,0.889,697.15,CCCCCCCCC(Br)Br,01000000000000000000000000100000010000100000000000000000000000100000000000000000100000001000000000010000001000000000000100000000
"1,1-dibromoheptadecane",398.26496,818.59,0.904,652.15,CCCCCCCCCCCCCCCCCC(Br)Br,01000000000000000000000000100000010000100000000000000000000000100000000000000000100000001000000000010000001000000000000100000000
"1,1-dibromoheptane",257.99616,700.05,0.571,495.15,CCCCCCCC(Br)Br,01000000000000000000000000100000010000100000000000000000000000100000000000000000100000001000000000010000001000000000000100000000
"1,1-dibromohexadecane",384.23808,808.08,0.889,639.15,CCCCCCCCCCCCCCCCCCCCCCCCC(Br)Br,01000000000000000000000000100000010000100000000000000000000000100000000000000000100000001000000000010000001000000000000100000000
"1,1-dibromohexane",243.96928,684.21,0.526,475.15,CCCCCCCCCCCCCCC(Br)Br,01000000000000000000000000100000010000100000000000000000000000100000000000000000100000001000000000010000001000000000000100000000
"1,1-dibromononadecane",426.31872,837.69,0.912,675.15,CCCCC(Br)Br,01000000000000000000000000100000010000100000000000000000000000100000000000000000100000001000000000010000001000000000000100000000
"1,1-dibromononane",286.04992,729.44,0.659,533.15,CCC(Br)Br,01000000100000000000000000000000010000100000000000000000000000100000000000000000100000001000000000000000001000000000000000000000
"1,1-dibromooctadecane",412.29184,828.45,0.911,664.15,CCCCCCCCCCCCCCCCCCCCCCCC(Br)Br,01000000000000000000000000100000010000100000000000000000000000100000000000000000100000001000000000010000001000000000000100000000
"1,1-dibromooctane",272.02304,716.02,0.616,515.15,CCCCCCCCCCCCCC(Br)Br,01000000000000000000000000100000010000100000000000000000000000100000000000000000100000001000000000010000001000000000000100000000
"1,1-dibromopentacosane",510.48,901.35,0.75,736.15,CCCCCCCCCCCCCCCCCCCCCCC(Br)Br,01000000000000000000000000100000010000100000000000000000000000100000000000000000100000001000000000010000001000000000000100000000
"1,1-dibromopentadecane",370.2112,798.14,0.869,626.15,CCCCCCCCCCCCC(Br)Br,01000000000000000000000000100000010000100000000000000000000000100000000000000000100000001000000000010000001000000000000100000000
"1,1-dibromopentane",229.9424,665.55,0.48,453.15,CCCCCCCCCCC(Br)Br,01000000000000000000000000100000010000100000000000000000000000100000000000000000100000001000000000010000001000000000000100000000
"1,1-dibromopropane",201.88864,624.11,0.39,406.65,FC(F)(F)C(F)(Cl)Cl,00000000100000000001000000000010000100000000010000000000000100000000000000000000000000000000000000000000000000000010000000000000
"1,1-dibromotetracosane",496.45312,889.11,0.796,726.15,FC(F)C(F)(Cl)Cl,01000000100001000001000000100000000100000000010000000000000000000000000000000000000000000000000000000000000000010010000000000000
"1,1-dibromotetradecane",356.18432,787.47,0.843,612.15,FCC(F)(Cl)Cl,00000000100000000001000000000000000100000000010000000000000100000000000010000000100000010000000000000000000000000010000000000000
"1,1-dibromotricosane",482.42624,878.87,0.835,717.15,CC(F)(Cl)Cl,00000000100000000001000000000000010100000000010000000000000000000000000000000000000000000000000000000000000000000010000000000000
"1,1-dibromotridecane",342.15744,777.32,0.813,598.15,FC(F)C(Cl)Cl,01000000100000000011000000101000000000010000000000000000000000000000000000000000000000000000000000000000000000000000000000000000
"1,1-dibromoundecane",314.10368,754.56,0.741,567.15,CC(C)(C)C(Cl)Cl,01000000100000000011001000000000010000000000000000000000000000000000000000000000000000000000000000000000000001000010000000000000
"1,1-dichloro-1,2,2,2-tetrafluoroethane",170.9210128,418.55,0.253,276.17,CC=CC(Cl)Cl,01000000000000000011000000000000010000000000000000000010000000000000000000001000101000001000000000000000000000000000000000000000
"1,1-dichloro-1,2,2-trifluoroethane",152.9305496,481.32,0.287,303.0,FCC(Cl)Cl,01000000100000000011000000000000000000000000000000000000000000000000000000000000100000010000000000000000100000000000000000000000
"1,1-dichloro-1,2-difluoroethane",134.9400864,488.39,0.264,315.33,CC(C)=C(Cl)Cl,00000000000010000001000000000000010000010000000000000000000000000000000000000000000000000000000000000000000001000000000011000000
"1,1-dichloro-1-fluoroethane",116.9496232,478.85,0.221,305.15,CCC(C)C(Cl)Cl,01000000100000000011000000010000010000110000000000000000000000000000000000000000100000000000000000000000000000000000000001000000
"1,1-dichloro-2,2-difluoroethane",134.9400864,515.98,0.112,333.15,CC(C)C(Cl)Cl,01000000000000000011000000010000010000010000000000000000000000000000000000000000000000000000000000000000000001000000000000000000
"1,1-dichloro-2,2-dimethylpropane",141.0398,633.42,0.262,418.0,CC(C)(C)CC(Cl)Cl,01000000100000000011000000000000010000000000000000000000010000000000000000000000100000000000000000000100100000000010000000000000
"1,1-dichloro-2-butene",124.99704,640.0,0.302,399.15,CC(C)CC(Cl)Cl,01000000000000000011000000010000010000001000000000000001000000000000000000000000100000000000000000000000100000000000000000000000
"1,1-dichloro-2-fluoroethane",116.9496232,473.24,0.272,305.0,CCCC(Cl)Cl,01000000000000000011000000100000010000100000000000000000000000000000000000000000100000000000000000010000100000000000000000000000
"1,1-dichloro-2-methyl-1-propene",124.99704,640.0,0.302,381.65,CCCCCCCCCC(Cl)Cl,01000000000000000011000000100000010000100000000000000000000000000000000000000000100000000000000000010000100000000000000100000000
"1,1-dichloro-2-methylbutane",141.0398,595.96,0.323,400.0,CCCCCCCCCCCCCCCCCCCCCC(Cl)Cl,01000000000000000011000000100000010000100000000000000000000000000000000000000000100000000000000000010000100000000000000100000000
"1,1-dichloro-2-methylpropane",127.01292,576.09,0.278,378.15,CCCCCCCCCCCC(Cl)Cl,01000000000000000011000000100000010000100000000000000000000000000000000000000000100000000000000000010000100000000000000100000000
"1,1-dichloro-3,3-dimethylbutane",155.06668,633.09,0.397,421.1,CCCCCCCCCCCCCCCCCCCC(Cl)Cl,01000000000000000011000000100000010000100000000000000000000000000000000000000000100000000000000000010000100000000000000100000000
"1,1-dichloro-3-methylbutane",141.0398,600.06,0.323,402.75,CC(Cl)Cl,01000000000000000011000000010000010000000000000000000000000000000000000100000000000000000000000000000000000000000000000000000000
"1,1-dichlorobutane",127.01292,584.34,0.308,386.95,ClC(Cl)=C,00000000000010000001000000000000000000010000000000000000000000100000000000000000000000100000000000000000000000000000000000000010
"1,1-dichlorodecane",211.1742,704.32,0.57,520.15,CCCCCCCCCCCCCCCCCCCCC(Cl)Cl,01000000000000000011000000100000010000100000000000000000000000000000000000000000100000000000000000010000100000000000000100000000
"1,1-dichlorodocosane",379.49676,846.62,0.754,689.15,CCCCCCCCCCCCCCCCC(Cl)Cl,01000000000000000011000000100000010000100000000000000000000000000000000000000000100000000000000000010000100000000000000100000000
"1,1-dichlorododecane",239.22796,733.47,0.647,556.15,CCCCCCC(Cl)Cl,01000000000000000011000000100000010000100000000000000000000000000000000000000000100000000000000000010000100000000000000100000000
"1,1-dichloroeicosane",351.443,825.11,0.785,667.15,CCCCCCCCCCCCCCCC(Cl)Cl,01000000000000000011000000100000010000100000000000000000000000000000000000000000100000000000000000010000100000000000000100000000
"1,1-dichloroethane",98.95916,523.0,0.234,330.45,CCCCCC(Cl)Cl,01000000000000000011000000100000010000100000000000000000000000000000000000000000100000000000000000010000100000000000000100000000
"1,1-dichloroethylene",96.94328,482.0,0.272,304.71,CCCCCCCCCCCCCCCCCCC(Cl)Cl,01000000000000000011000000100000010000100000000000000000000000000000000000000000100000000000000000010000100000000000000100000000