name,molweight,critical temperature (K),acentric factor,boiling point (K),SMILES,ECFP_Bits
3-ethyl-3-methylhexane,128.2578,597.5,0.352,413.76,CCC(O)(CC)CCC(C)C,01000000100000000000000000011000010000110000000000000001000000000000000000000000100000000000000000010000000000000010100000000000
3-ethyl-3-methylhexanoic acid,158.24072,703.0,0.831,456.91,CCCC(C)(CC)CC(=O)O,00000100101001000000000000101000010001110000000000000000000000000000000001000000100000000000000000000000000000000010000000000100
3-ethyl-3-octanol,158.28408,624.3,0.819,472.15,CCc1cccc(C)c1C,00000001000000000000000000000000010000100000000000000000001000001000010000000000110000100000000000001000000000010000000000001000
3-ethyl-3-pentanol,116.20344,573.17,0.695,415.65,CCC(CC)(CC)O,00000000100000000000000000000000010000110000000000000000000000000000000000000000100000000000000000000000000000000010100000000000
3-ethyl-4-isopropylheptane,170.33844,637.53,0.491,468.15,CCc1cccc(c1)c2ccccc2,00000001100000000000000000000000010000100000000000000000000000001000000000000000110000100010000000001000000100000000000000000000
3-ethyl-4-methyl-2-pentanone,128.21444,624.0,0.528,427.65,CCC1CCCC=C1,00001000000000000000000000000010010000100000011000000000000100000000000000000000110000001000000000000000100000000000000000010000
3-ethyl-4-methylheptane,142.28468,615.5,0.409,436.16,CCC1CCC=C1,00000000000000000000000000000010010000100000011000000000000100000000000000000000110000001000000000000000100000000000000000010000
3-ethyl-4-methylhexane,128.2578,593.7,0.372,413.56,CCCCCCCC(CC)CC,01000000100010000000000000100000010000100000000000000000000000000000000000000000100000000000000000010000000000000000000100000000
3-ethyl-4-methylpyridine,121.18208,653.0,0.376,471.15,CCc1cccc(Cc2ccccc2)c1,00000001000000000000001000000000010000100000000000000000000000001000000000000000110000100010000000001000000100000000000000000000
3-ethyl-4-octanol,158.28408,613.33,0.852,466.0,CCc1cocc1,10000001000000001001000000000000010000110000000000000000000000000000000000000000110000100010000000001000000000000000000000000000
3-ethyl-4-propylheptane,170.33844,635.31,0.519,469.15,CCCCC(CC)CC,01000000100010000000000000100000010000100000000000000000000000000000000000000000100000000000000000010000000000000000000100000000
3-ethyl-5-methylheptane,142.28468,606.6,0.416,431.36,CCCC(CC)CC,01000000100010000000000000100000010000100000000000000000000000000000000000000000100000000000000000010000000000000000000000000000
3-ethyl-6-methyl-3-heptanol,158.28408,629.0,0.793,472.78,CCCC(CC)CC(O)=O,01000100101010000000000000100000010000110000000000000000000000000000000001000000100000000000000000010000000000000000000000000100
3-ethyl-cis-2-hexene,112.21504,572.89,0.351,394.15,CCCCCCC(CC)CC,01000000100010000000000000100000010000100000000000000000000000000000000000000000100000000000000000010000000000000000000100000000
3-ethyl-o-xylene,134.22116,680.0,0.362,467.11,CCCCCC(CC)CC,01000000100010000000000000100000010000100000000000000000000000000000000000000000100000000000000000010000000000000000000100000000
3-ethyl-trans-2-hexene,112.21504,572.89,0.351,394.15,CCC(CC)CC,01000000100010000000000000000000010000100000000000000000000000000000000000000000100000000000000000000000000000000000000000000000
3-ethylbiphenyl,182.26516,801.0,0.482,559.11,CCc1cccnc1,00000001000000000000000000000000010000100000000000000000000000001001000000100000110000100010000000001000000000000000000000100001
3-ethylcyclohexene,110.19916,609.58,0.285,404.76,CCc1cnc2ccccc2c1,00000001000000000000000000000000010000100000100000000000000000011000000001000000110000100010000000001000000100000000000000100001
3-ethylcyclopentene,96.17228,565.35,0.27,370.92,CCC1CCOC1,00010000000100001000000000000110010000100000011000000010000000000000000000000000100000000000000000000000000000000000000000010000
3-ethyldecane,170.33844,648.96,0.548,481.85,CCC1CCCSC1,00001000000000000000010000000110010110100000011000000000000000000000000000000001100000000000000000000000000000000000000000010000
3-ethyldiphenylmethane,196.29204,786.18,0.522,564.69,CCC1CCSC1,00000000000000000000010000000110010110100000011000000000000000000000000000000001100000000000000000000000000000000000000000010000
3-ethylfuran,96.12892,556.26,0.333,365.0,CCc1cscc1,00000001000000100000000000000000010100101000000000000000000000000000000000000000110000100010000000001000010000000000000000000000
3-ethylheptane,128.2578,590.0,0.408,416.35,CC(F)C=C,01000000100000000000000000110000010000000001000000000010100000000000000000000000000000100000000000000000000001000000000000000000
3-ethylhexane,114.23092,565.5,0.361,391.69,CCC(F)C=C,01000000100000000000000000100000010000100000000000000010100000000000000000000000100000100100000000000000000001000000000000000000
3-ethylhexanoic acid,144.21384,692.0,0.779,436.35,FCC=C,00000000100000000000000000000000000000000000100000000010000000000000000000000000100000110000000000000000000001000000000000000001
3-ethylnonane,156.31156,630.13,0.507,461.15,CCC(=C)CF,00100000100000000000000000000000010000110000000000000000000000000000000000000000100010110000000000000000001000000000000000000010
3-ethyloctane,142.28468,613.6,0.446,439.66,CC(F)C(C)=C,01000100100000000000000000110000010000010000000000000000000000000000000000000001000000100000000000000000000000000000000001000010
3-ethylpentane,100.20404,540.6,0.309,366.62,CC(=C)CF,00000000100000000000000000000000010000010000000000000000000000000000000000000000101000110000000000000000001000000000000001000010
3-ethylpyridine,107.1552,657.7,0.388,440.15,CCC(F)C(C)C,01000000100000000000000000110000010000100000000000000000000000000000000000000000100000000000000000000000000001000000000000100000
3-ethylquinoline,157.21508,775.67,0.498,539.15,CC(C)(F)C=C,00000000100000000000000000000000010000000000010000000010000000000000000000000100000000100000000000000000000001000110000000000000
3-ethyltetrahydrofuran,100.16068,590.7,0.308,389.15,CCC(C)(F)CC,00000000100000010000000000000000010000110000010000000000000000000000000000000000100000000000000000000000000000000010000000000000
3-ethylthiophene,112.19552,626.7,0.298,409.15,CCCC(F)CC,01000000100000000000000000100000010000100000000000000000000000000000000000000000100000000000000000010000000000000000000000000001
3-fluoro-1-butene,74.0979832,445.34,0.232,286.43,CCCCCCCCCCCCCC#CCC,00000000000000000000000100100100011100100000000000000000000000000000000000000000100000000000000000000000000000000000000100000000
3-fluoro-1-pentene,88.1248632,469.68,0.276,309.31,CCCCC(O)CC,01000000100000000000000000100000010000110000000000000000000000000000000000000000100000000000000000010000000000000000001100000000
3-fluoro-1-propene,60.0711032,394.72,0.218,270.15,C=CCF,00000000100000000000000000000000000000000000100000000010000000000000000000000000100000110000000000000000000001000000000000000001
3-fluoro-2-ethyl-1-propene,88.1248632,469.43,0.281,309.63,CCCCC(=O)CC,00100000001000000000000010101000010000110000000000000000000000000000000000000000100000000000000000000000000000000000000100000100
3-fluoro-2-methyl-1-butene,88.1248632,472.95,0.251,309.19,CCCC=CCC,00000000000000000100000000100000010000100000001000000010000000000000000000001000100000000000000000000000000000000000000000000000
3-fluoro-2-methyl-1-propene,74.0979832,473.42,0.237,305.0,CC(=C)CF,00000000100000000000000000000000010000010000000000000000000000000000000000000000101000110000000000000000001000000000000001000010
3-fluoro-2-methylpentane,104.1676232,511.81,0.313,345.15,CCCC#CCC,00000000000000000000000100100100011100100000000000000000000000000000000000000000100000000000000000000000000000000000000000000000
3-fluoro-3-methyl-1-butene,88.1248632,473.89,0.216,306.52,CCCCCCCCCCCCCC(O)CC,01000000100000000000000000100000010000110000000000000000000000000000000000000000100000000000000000010000000000000000001100000000
3-fluoro-3-methylpentane,104.1676232,508.31,0.282,340.0,CCCCCCCCCCCCCC(=O)CC,00100000001000000000000010101000010000110000000000000000000000000000000000000000100000000000000000000000000000000000000100000100
3-fluoro-cis-2-pentene,88.1248632,482.63,0.271,317.11,CCCCCCCCCCCCC#CCC,00000000000000000000000100100100011100100000000000000000000000000000000000000000100000000000000000000000000000000000000100000000
3-fluoro-trans-2-pentene,88.1248632,482.63,0.271,317.11,CCCC(S)CC,01000000100000000000000000100000010000100000000000000000000000000000000000000000100000000000000000010100000010000000000000001000
3-fluorohexane,104.1676232,523.73,0.342,356.05,CCCC(O)CC,01000000100000000000000000100000010000110000000000000000000000000000000000000000100000000000000000010000000000000000001000000000
3-heptadecyne,236.44108,739.6,0.68,573.15,CCCCCCCCCCCCCC#CCC,00000000000000000000000100100100011100100000000000000000000000000000000000000000100000000000000000000000000000000000000100000000
3-heptanol,116.20344,585.83,0.764,429.85,CCCC(=O)CC,00100000001000000000000010101000010000110000000000000000000000000000000000000000100000000000000000000000000000000000000000000100
"3-heptanol, (S)",116.20344,587.2,0.709,430.15,CCC#CCC,00000000000000000000000100000000011100100000000000000000000000000000000000000000100000000000000000000000000000000000000000000000
3-heptanone,114.18756,606.6,0.408,420.55,CC(CO)C=O,01000000001000000000000100010000010000010000000000000010000000000000000000000000100000000000001000100000000010000000000000001000
3-heptene,98.18816,537.61,0.294,369.0,CC(O)CC=O,01000100001000000100000000010000010000010000000000000010000000000000000000000000100000000000000000010000100010000000000000000000
3-heptene (mixed isomers),98.18816,537.61,0.294,363.69,CC(I)C=C,01000000000000001000010000010000010000000000000000000010100001000000000000000000000000100000000000000000000001000000000000000000
3-heptyne,96.17228,574.59,0.279,380.31,CCC(I)C=C,01000000100000001000010000000000010000100000000000000010100000000001000000000000100000100000000000000000000001000000000000000000
3-hexadecanol,242.44536,757.6,0.756,568.53,ICC=C,00000000000000000000010000000000000000000000100000000010000000000000000000000000100000110000000000000000001001000000000000000000
3-hexadecanone,240.42948,736.51,0.81,569.98,CCC(=C)CI,00100000000000000000010000000000010000110000000000000000000000000000000000000000100010110000000000000001000000000000000000000010
3-hexadecyne,222.4142,729.15,0.65,559.15,CC(I)C(C)=C,01000000010000001000010000010000010000010000000000000000000000000000000000000001000000100000000000000000000000000000000001000010
3-hexanethiol,118.24316,615.0,0.353,407.26,CC(=C)CI,00000000000000000000010000000000010000010000000000000000000000000000000000000000101000110000000000000001000000000000000001000010
3-hexanol,102.17656,579.3,0.558,408.55,CCC(I)C(C)C,01000000100000001000010000010000010000100000000000000000000000000000000000000000100000000000000000000000100001000000000000000000
"3-hexanol, (R)",102.17656,581.8,0.582,408.15,CC(C)(I)C=C,00000000100000000000010000000000010000000000000000000010000000000000000000000100000000100000000000000100000001000010000000000000
3-hexanone,100.16068,582.82,0.38,396.65,CCC(C)(I)CC,00000000100001000000010000000000010000110000000000000000000000000000000000000000100000000000000000000000000000000010000000000000
3-hexyne,82.1454,544.0,0.218,354.35,CCC#CCC,00000000000000000000000100000000011100100000000000000000000000000000000000000000100000000000000000000000000000000000000000000000
3-hydroxybutanal,88.10632,620.0,0.797,444.0,CCCCC(I)CC,01000000100000001000010000100000010000100000000000000000000000000000000000000000100000000100000000010000000000000000000100000000
3-iodo-1-butene,182.00405,625.42,0.223,400.0,CCCC(I)CC,01000000100000001000010000100000010000100000000000000000000000000000000000000000100000000100000000010000000000000000000000000000
3-iodo-1-pentene,196.03093,615.43,0.267,403.18,CC(C)Cc1cccc(O)c1,01000000000000000000000000010000010000010000000000000001000000001010000000000001110000100010000000001000010100000000000000000000
3-iodo-1-propene,167.97717,595.81,0.202,375.16,CCCCC(CCO)C(C)C,01000000000000000000000000110000010000110000000000000000000000000000000000000000101000000100001000010000000001000000000100000000
3-iodo-2-ethyl-1-propene,196.03093,614.94,0.271,403.5,CCCC(C(C)C)C(C)C,01000000000000000000000000110000010000100000000000000000000000001000000000000000100000000000000000010000000001000000000000000000
3-iodo-2-methyl-1-butene,196.03093,630.52,0.242,410.0,CC(C)c1cccc(O)c1,01000000000000000000000000010000010000010000000000000000000000001010000000000000010001100000000000001000010100000000000000000000
3-iodo-2-methyl-1-propene,182.00405,594.11,0.227,380.62,CC(C)c1cccnc1,01000000000000000000000000010000010000000000000000000000000000001001000000100000010001100000000000001000000000000000000000100001
3-iodo-2-methylpentane,212.07369,597.44,0.705,428.94,CC(C)c1cscc1,01000000000000100000000000010000010100001000000000000000000000000000000000000000010001100000000000001000010000000000000000000000
3-iodo-3-methyl-1-butene,196.03093,622.45,0.207,400.39,OC(=O)CCS,00000100001010000000000000001000000000010000000000010000000000000000000001000000100000000000000000000100000000000000000000000100
3-iodo-3-methylpentane,212.07369,597.98,0.668,426.59,COC(C)CCO,01000000000000000000000000010000110000010000000000000001000000000000000101000000100000000100001000010000000000000000000000000000
3-iodo-cis-2-pentene,196.03093,628.8,0.261,410.98,COCCCO,00000000000001000000000000000000010000010000000000000001000000000000000001000000100000000100001000000000000001000000000100000000
3-iodo-trans-2-pentene,196.03093,628.8,0.261,410.98,COCC=C,00000000000000000000000000000000010100000000100000000011000000000000000001000000100000100000000000000000000001000000000000000000
3-iodoheptane,226.10057,646.56,0.816,477.1,COCC(C)=C,00000000000000000000000000000000010000010000000000000001000000000000000001000000101010100000000000000000000001000000000001000010
3-iodohexane,212.07369,610.59,0.739,441.15,COC(C)(C)CCO,00000000100000000000000000001000010000010000000000000001000000000000000001000000100000000100001000010100000000000010000000000000
3-isobutylphenol,150.22056,733.0,0.51,510.0,COCCC#N,00000000000001000000001000000100011000000000000000000001000000000100000001000000100000000000000000000000100001000000000000000000
3-isopropyl-1-heptanol,158.28408,642.75,0.852,488.35,CC1CC[S](=O)(=O)C1,00000000011000000000000000000110010000000000010000000000000000000000000000000001001001000000000000000010000000000000000000011000
3-isopropyl-2-methylhexane,142.28468,623.4,0.391,439.86,CSc1cccc(C)c1,00000000001000000000000000000001010000000001000000000000001100001000000000000000010000100000000000001000000100000000100000000000
3-isopropylphenol,136.19368,734.54,0.464,501.15,CCSc1cccc(C)c1,00000000000000000000000000000001010001100001000000000000001000001000000000000000110001100000000000001000000100000000100000000000
3-isopropylpyridine,121.18208,653.0,0.376,450.65,CC(c1ccccc1)c2cccc(C)c2,01000001000000000000000000010001010000000000000000000000001000001000000000000000010001100000000000001000000100000000000000000000
3-isopropylthiophene,126.2224,652.61,0.312,430.15,C[C](C)=[C]=[CH2],00000000000000000000000000000000011000010000000000000000000000000000000000000000000000100100000001000100000000000000000001000000
3-mercaptopropionic acid,106.14544,729.0,0.589,501.0,Cc1cccc(CCc2ccccc2)c1,00000000000000000000000000000001010000000000000000000000001000001000000000000000110000100011000000001000000100000000000000000000
3-methoxy-1-butanol,104.14908,582.0,0.783,430.15,CC[C](C)=[C]=[CH2],00100000000000000000000000000000011000110000000000000000000000000000000000000000100000100100000001000000000000000000000001000000
3-methoxy-1-propanol,90.1222,569.0,0.759,430.7,CC(C)(O)CCO,00000000100000000000000000001000010000010000000000000000000000000000000000000000100000010100001000000000000000000010100000000000
3-methoxy-1-propene,72.10692,475.15,0.266,317.15,CC=C(C)C=C,00000000000000000000000000000000010000010000000000000010000000010000000000001010000000100000000000000000000001000000000001000000
3-methoxy-2-methyl-1-propene,86.1338,505.58,0.323,340.15,CC(C=C)C=C,01000000000000000000000000010000010000000000000000000010100000000000000010000000000000100000000000000000000001000000000000000000
3-methoxy-3-methylbutanol,118.17596,600.0,0.817,447.15,CC(C)(CCO)OC,00000000100000000000000000001000010000010000000000000001000000000000000001000000100000000100001000010100000000000010000000000000
3-methoxypropionitrile,85.10572,638.0,0.465,439.0,COCCC#N,00000000000001000000001000000100011000000000000000000001000000000100000001000000100000000000000000000000100001000000000000000000
3-methyl sulfolane,134.1992,817.0,0.419,549.15,CC(C)CCS,01000000000010000000000000010000010000000000000000010001000000000000000000000000100000000000000000010100000000000000000000000000
3-methyl-(1-thiaethyl)-benzene,138.2334,718.95,0.371,482.88,CC(C)CCO,01000000000000000000000000010000010000010000000000000001000000000000000000000000100000000100001000010000000000000000000000000000
3-methyl-(1-thiapropyl)-benzene,152.26028,717.74,0.416,492.15,CC(C)C=C,01000000000000000000000000010000011000000000000000000010100000000000000000000000000000100000000000000000000001000000000000000000
"3-methyl-1,1-diphenylethane",196.29204,786.32,0.491,561.15,CC(C)C#C,01001000000000000001000000010000011000000000000000000000000010000000000000000010000000000000000000000000000000000000000000000000
"3-methyl-1,2-butadiene",68.11852,490.0,0.187,314.0,CCCCC(C)CCO,01000000000000000000000000110000010000110000000000000000000000000000000000000000100000010100001000010000000000000000000100000000
"3-methyl-1,2-diphenylethane",196.29204,792.39,0.522,569.15,CCCCC(C)C=C,01000000000000000000000100110000010000100000000000000010100000000000000000000000100000100000000000010000000001000000000100000000
"3-methyl-1,2-pentadiene",82.1454,528.84,0.239,343.15,CCCC(C)CCN,01000000000000000001000000110000010000100000000010000000000000000000000000000000100001010000000000010000000000000000000000000000
"3-methyl-1,3-butanediol",104.14908,632.01,1.103,472.15,CCCC(C)CCO,01000000000000000000000000110000010000110000000000000000000000000000000000000000100000010100001000010000000000000000000000000000
"3-methyl-1,3-pentadiene",82.1454,526.51,0.25,350.15,C/C=C(\C)/C=C,00000000000000000000000000000000010000010000000000000010000000010000000000001010000000100000000000000000000001000000000001000000
"3-methyl-1,4-pentadiene",82.1454,497.0,0.247,326.0,CCCC(C)C=C,01000000000000000000000100110000010000100000000000000010100000000000000000000000100000100000000000010000000001000000000000000000
"3-methyl-1,cis-3-pentadiene",82.1454,536.73,0.241,350.15,CCCC(C)C#C,01001000000000000001001000110000011000100000000000000000000000000000000000000010100000000000000000010000000000000000000000000000
"3-methyl-1,trans-3-pentadiene",82.1454,536.73,0.241,350.15,CC1CCC(=C1)C(C)C,01000000000000000000001000010110010000000000010001000000010000000000000000100000010000100000000000001000000000000000000000010000
3-methyl-1-butanethiol,104.21628,604.0,0.22,391.5,CCCCCCC(C)CCO,01000000000000000000000000110000010000110000000000000000000000000000000000000000100000010100001000010000000000000000000100000000
3-methyl-1-butanol,88.14968,577.2,0.589,404.35,CCCCCC(C)CCO,01000000000000000000000000110000010000110000000000000000000000000000000000000000100000010100001000010000000000000000000100000000
3-methyl-1-butene,70.1344,452.7,0.21,293.21,CCC(C)CCO,01000000100000000000000000010000010000110000000000000000000000000000000000000000100000010100001000010000000000000000000000000000
3-methyl-1-butyne,68.11852,463.2,0.308,302.15,CC(C)C#C,01001000000000000001000000010000011000000000000000000000000010000000000000000010000000000000000000000000000000000000000000000000
3-methyl-1-heptanol,130.23032,616.9,0.806,459.15,CCC(C)C=C,01000000100000000000000100010000010000100000000000000010100000000000000000000000100000100000000000000000000001000000000000000000
3-methyl-1-heptene,112.21504,557.26,0.357,384.15,CCC(C)C#C,01001000100000000001001000010000011000100000000000000000000000000000000000000010100000000000000000000000000000000000000000000000