name,molweight,critical temperature (K),acentric factor,boiling point (K),SMILES,ECFP_Bits
1-bromo-2-methylbutane,151.04634,590.01,0.359,393.65,CC/C=C/CBr,00000000000000000000000000000000010000100000001000000010000000000000000000001000100000001000000000000000000000000001000000010000
1-bromo-2-methylpentane,165.07322,612.15,0.404,417.15,CCCCBr,00000000000000000000000000100000010000100000000000000000000000000000000000000000100000001000000000000000000000010000000100010000
1-bromo-2-methylpropane,137.01946,559.14,0.314,364.68,CCCCCCCCCCBr,00000000000000000000000000100000010000100000000000000000000000000000000000000000100000001000000000000000000000010000000100010000
1-bromo-2-pentene,149.03046,586.22,0.334,396.65,CCCCCCCCCCCCCCCCCCCCCCBr,00000000000000000000000000100000010000100000000000000000000000000000000000000000100000001000000000000000000000010000000100010000
"1-bromo-3,3-dimethylbutane",165.07322,606.7,0.373,410.15,CCCCCCCCCCCCBr,00000000000000000000000000100000010000100000000000000000000000000000000000000000100000001000000000000000000000010000000100010000
1-bromo-3-methyl-2-butene,149.03046,582.88,0.331,384.0,CCCCCCCCCCCCCCCCCCCCBr,00000000000000000000000000100000010000100000000000000000000000000000000000000000100000001000000000000000000000010000000100010000
1-bromo-3-methylbutane,151.04634,589.86,0.359,393.55,CCCCCCCCCCCCCCCCCCCCCBr,00000000000000000000000000100000010000100000000000000000000000000000000000000000100000001000000000000000000000010000000100010000
1-bromo-3-methylpentane,165.07322,618.02,0.404,421.15,CCCCCCCCCCCCCCCCCBr,00000000000000000000000000100000010000100000000000000000000000000000000000000000100000001000000000000000000000010000000100010000
1-bromo-4-methylpentane,165.07322,616.55,0.404,420.15,CCCCCCCBr,00000000000000000000000000100000010000100000000000000000000000000000000000000000100000001000000000000000000000010000000100010000
1-bromo-cis-2-butene,135.00358,581.68,0.312,377.15,CCCCCCCCCCCCCCCCBr,00000000000000000000000000100000010000100000000000000000000000000000000000000000100000001000000000000000000000010000000100010000
1-bromo-cis-2-pentene,149.03046,597.03,0.357,396.15,CCCCCCBr,00000000000000000000000000100000010000100000000000000000000000000000000000000000100000001000000000000000000000010000000100010000
1-bromo-trans-2-butene,135.00358,581.68,0.312,377.15,Brc1cccc2ccccc12,00000000000000000000000000000000000000000000000000000000000000011100000000000100010000101000000100001000000000000000000000000000
1-bromo-trans-2-pentene,149.03046,597.03,0.357,396.15,CCCCCCCCCCCCCCCCCCCBr,00000000000000000000000000100000010000100000000000000000000000000000000000000000100000001000000000000000000000010000000100010000
1-bromobutane,137.01946,577.0,0.323,374.75,CCCCCCCCCBr,00000000000000000000000000100000010000100000000000000000000000000000000000000000100000001000000000000000000000010000000100010000
1-bromodecane,221.18074,698.43,0.611,513.75,CCCCCCCCCCCCCCCCCCBr,00000000000000000000000000100000010000100000000000000000000000000000000000000000100000001000000000000000000000010000000100010000
1-bromodocosane,389.5033,837.39,0.814,681.15,CCCCCCCCBr,00000000000000000000000000100000010000100000000000000000000000000000000000000000100000001000000000000000000000010000000100010000
1-bromododecane,249.2345,726.55,0.69,549.05,CCCCCCCCCCCCCCCCCCCCCCCCCBr,00000000000000000000000000100000010000100000000000000000000000000000000000000000100000001000000000000000000000010000000100010000
1-bromoeicosane,361.44954,816.19,0.841,659.15,CCCCCCCCCCCCCCCBr,00000000000000000000000000100000010000100000000000000000000000000000000000000000100000001000000000000000000000010000000100010000
1-bromoheneicosane,375.47642,826.47,0.831,670.15,CCCCCBr,00000000000000000000000000100000010000100000000000000000000000000000000000000000100000001000000000000000000000010000000100010000
1-bromoheptadecane,319.3689,784.07,0.827,622.15,CCCBr,00000000000000000000000000100000010000100000000000000000000000000000000000000000100000001000000000000000000000010000000000010000
1-bromoheptane,179.1001,651.0,0.444,452.05,CCCCCCCCCCCCCCCCCCCCCCCCBr,00000000000000000000000000100000010000100000000000000000000000000000000000000000100000001000000000000000000000010000000100010000
1-bromohexadecane,305.34202,773.66,0.809,609.15,CCCCCCCCCCCCCCBr,00000000000000000000000000100000010000100000000000000000000000000000000000000000100000001000000000000000000000010000000100010000
1-bromohexane,165.07322,623.86,0.435,428.45,CCCCCCCCCCCCCCCCCCCCCCCBr,00000000000000000000000000100000010000100000000000000000000000000000000000000000100000001000000000000000000000010000000100010000
1-bromonaphthalene,207.06958,824.0,0.369,554.25,CCCCCCCCCCCCCBr,00000000000000000000000000100000010000100000000000000000000000000000000000000000100000001000000000000000000000010000000100010000
1-bromononadecane,347.42266,805.31,0.843,647.15,CCCCCCCCCCCBr,00000000000000000000000000100000010000100000000000000000000000000000000000000000100000001000000000000000000000010000000100010000
1-bromononane,207.15386,682.65,0.568,494.55,CCC=C,00000000000000000000000000000000010000100000101000000010000000000000000000000000100000100000000000000000000001000000000000000000
1-bromooctadecane,333.39578,795.03,0.838,635.15,CCCCC1CCCc2ccccc12,00011000000000000000000000100010010000100000010000000000000000001000000000110000110010100000000000001000000000000000000100010000
1-bromooctane,193.12698,665.09,0.524,473.95,CCCCC1=CCCC1,00001000000000000000000000100010010000100000000000000000000000000000000000100000110000000001000000001000000000000000010100010000
1-bromopentacosane,431.58394,869.43,0.714,710.15,CCCCc1cccc2ccccc12,00000000000000000000000000100000010000100000000000000000000000011000010000000100110000100001000000001000000000000000000100000000
1-bromopentadecane,291.31514,762.51,0.786,595.15,FC(F)C(F)(F)Cl,01000000100000000001000000100000000100000000010000000000000000000000000000000000000000000000000000000000000000010010010000000000
1-bromopentane,151.04634,564.76,0.384,402.74,FCC(F)(F)Cl,00000000100000000001000000000000000100000000010010000000000100000000000000000000100000010000000000000000000000000010000000000000
1-bromopropane,122.99258,544.0,0.285,344.15,CC(F)(F)Cl,00000000100000000001010000000000010100000000010000000000000000000000000000000000000000000000000000000000000000000010000000000000
1-bromotetracosane,417.55706,858.84,0.755,701.15,FC(F)C(F)Cl,01000000100000000011000000101000000000000000001000000000000000000000000000000000000000000000000000000000000000000000000000000000
1-bromotetradecane,277.28826,750.56,0.758,580.15,FCC(F)Cl,01000000100000000011000000100000000000000000000000000000000000000000000000000000100000010000000000000000000000000100000000000000
1-bromotricosane,403.53018,847.76,0.788,691.15,ClC=CC=C,00000010000000001001000000000000000000000000000010000010000000000000000000000000000000100000000000000000000001000000000000000001
1-bromotridecane,263.26138,739.06,0.726,565.15,CC(F)Cl,01000000100000100011000000110000010000000000000000000000000000000000000000000000000000000000000000000000000000000000000000000000
1-bromoundecane,235.20762,713.07,0.651,531.95,CCCCCC=CCl,00000010000000000101000000100000010000100000000000000010000000000000000000001000100000000000000000000000000000000000000100000001
1-butene,56.10752,419.59,0.187,266.9,CCCCC=CCl,00000010000000000101000000100000010000100000000000000010000000000000000000001000100000000000000000000000000000000000000100000001
"1-butyl-[1,2,3,4-tetrahydronaphthalene]",188.3128,756.75,0.511,546.28,CC=CCl,00000010000000000001000000000000010000000000000000000010000000000000000000001000100000000000000000000000000000000000000000000001
1-butylcyclopentene,124.22604,626.53,0.359,429.15,CCC(C)(C)CCl,00000000100000000001000000000000010000110000000000000000000000000000000000010000100001000000000000000000001000000010000000000000
1-butylnaphthalene,184.28104,792.0,0.495,562.54,CC(C)=C(C)CCl,00000000000000000001000000010000010000010000000000000000000000000000000000000000100001000000000000000000000000000000000011000000
"1-chloro-1,1,2,2-tetrafluoroethane",136.4762528,400.0,0.274,261.41,CC(C)C(C)CCl,01000000000000000001000000010000010000000000000000000000000000000000000000000000100001000000000000000000000001000000010001000000
"1-chloro-1,1,2-trifluoroethane",118.4857896,428.95,0.263,285.15,[O-][N+](=O)c1ccc(Cl)c(c1)[N+]([O-])=O,00000000001000000001000000000000000000000001000001000000000000000000001000011000010000100000000000001000000100100100000000100000
"1-chloro-1,1-difluoroethane",100.4953264,410.29,0.231,263.95,ClCc1ccccc1Cl,00000000000000000001000000000000000000000000000001000000000000001000010000000000110011100000000000001000000000100000000000000000
"1-chloro-1,2,2-trifluoroethane",118.4857896,428.68,0.295,290.15,CC=CCCl,00000000000000000001000000000000010000000000001000000010000000000000000000001000100001000000000000000000000000000000000000000000
"1-chloro-1,2-difluoroethane",100.4953264,435.18,0.271,280.69,CCC(CC)CCl,01000000100010000001000000000000010000100000000000000000000000000000000000000000100001000000000000000000000000000000010000000000
"1-chloro-1,3-butadiene",88.5364,525.0,0.193,341.15,FCCCl,00000000100000000001000000000000000000000000000010000000000000000000000000000000100001010000000000000000000000000000000000000000
1-chloro-1-fluoroethane,82.5048632,458.07,0.219,289.3,CCC(C)=CCl,00100000000000000001000000000000010000110000000000100010000000000000000000000000100000000000000000000000000000000000000101000001
1-chloro-1-heptene,132.63292,613.52,0.385,428.15,CC(C)=CCl,00000000000000000001000000000000010000010000000000000010000000000000000000000000000000000000000000000000010000000000000101000001
1-chloro-1-hexene,118.60604,583.61,0.341,394.15,CC=C(C)CCl,00000000000000000001000000010000010000010000000000100010000000000000000000001000100001000000000000000000000000000000000001000000
1-chloro-1-propene,76.5254,492.64,0.181,302.5,C/C=C/Cl,00000010000000000001000000000000010000000000000000000010000000000000000000001000100000000000000000000000000000000000000000000001
"1-chloro-2,2-dimethylbutane",120.62192,583.68,0.283,390.15,CCC(C)(C)CCl,00000000100000000001000000000000010000110000000000000000000000000000000000010000100001000000000000000000001000000010000000000000
"1-chloro-2,3-dimethyl-2-butene",118.60604,583.61,0.341,385.15,CCCC(C)CCl,01000000000000000001000000110000010000100000000000000000000000000000000000000000100001010000000000010000000000000000010000000000
"1-chloro-2,3-dimethylbutane",120.62192,586.34,0.314,395.15,CC(C)CCl,01000000000000000001000000010000010000000000000000000001000000000000000000000000100001000000000000000000000000000000010000000000
"1-chloro-2,4-dinitrobenzene",202.5536,813.77,0.732,588.0,CCC=CCCl,00000000000000000001000000000000010000100000001000000010000000000000000000001000100001000000000000000000000000000000000000000000
1-chloro-2-(chloromethyl)benzene,161.03004,710.0,0.343,490.15,CC(C)(C)CCCl,00000000100000000001000000001000010000000000000010000000000000000000000000000000100001000000000000000100000000000010000000000000
1-chloro-2-butene,90.55228,532.24,0.242,352.15,ClCc1cccc(Cl)c1,00000000000000000001000000000000000000000000000001000000000000001000000000000000110011101010000000001000000100000000000000000000
1-chloro-2-ethylbutane,120.62192,587.51,0.343,399.15,CCC=CCCCl,00000000000000000101000000000000010000100000001010000010000000000000000000001000100001000000000000000000000000000000000000000000
1-chloro-2-fluoroethane,82.5048632,511.0,0.251,326.15,CC(C)C=CCl,01000010000000000001000000010000011000000000000000000010000000000000000000000000000000001000000000000000000000000000000000000001
1-chloro-2-methyl-1-butene,104.57916,561.69,0.275,369.65,CC(C)=CCCl,00000000000000000001000000000000010000010000001000000010000000000000000000000000100001000000000100000000010000000000000001000000
1-chloro-2-methyl-1-propene,90.55228,532.31,0.227,341.25,CCCC(C)CCCl,01000000000000000001000000110000010000100000000010000000000000000000000000000000100001010000000000010000000000000000000000000000
1-chloro-2-methyl-2-butene,104.57916,561.69,0.275,383.15,CCC(C)CCCl,01000000100000000001000000010000010000100000000010000000000000000000000000000000100001010000000000010000000000000000000000000000
1-chloro-2-methyl-cis-2-butene,104.57916,580.52,0.271,381.15,ClCc1ccc(Cl)cc1,00000000000000000001000000000000000000000000000001000000000000000000000000000000110011101010000000001000000000000000000000000000
1-chloro-2-methyl-trans-2-butene,104.57916,575.95,0.271,378.15,CCC(CC)=CCCCl,00100000000000000101000000000000010000110000000010001010000000000000000000000000100001000000000100000000000000000000000000000000
1-chloro-2-methylpentane,120.62192,578.68,0.343,393.15,CC(C)CCCCl,01000000000000000001000000010000010000000000000010000001000000000000000000000000100001000000000000010000000000000000000100000000
1-chloro-2-methylpropane,92.56816,528.0,0.242,342.0,C\C=C/CCl,00000000000000000001000000000000010000000000001000000010000000000000000000001000100001000000000000000000000000000000000000000000
1-chloro-2-pentene,104.57916,561.69,0.275,381.15,CC\C=C/CCl,00000000000000000001000000000000010000100000001000000010000000000000000000001000100001000000000000000000000000000000000000000000
"1-chloro-3,3-dimethylbutane",120.62192,583.68,0.283,390.15,C/C=C/CCl,00000000000000000001000000000000010000000000001000000010000000000000000000001000100001000000000000000000000000000000000000000000
1-chloro-3-(chloromethyl)benzene,161.03004,710.0,0.343,489.15,CC/C=C/CCl,00000000000000000001000000000000010000100000001000000010000000000000000000001000100001000000000000000000000000000000000000000000
1-chloro-3-hexene,118.60604,583.61,0.341,395.45,CCCCCl,00000000000000000001000000100000010000100000000010000000000000000000000000000000100001000000000000000000000000000000000100000000
1-chloro-3-methyl-1-butene,104.57916,561.69,0.275,360.15,CCCCCCCCCCCl,00000000000000000001000000100000010000100000000010000000000000000000000000000000100001000000000000000000000000000000000100000000
1-chloro-3-methyl-2-butene,104.57916,583.57,0.271,383.15,CCCCCCCCCCCCCCCCCCCCCCCl,00000000000000000001000000100000010000100000000010000000000000000000000000000000100001000000000000000000000000000000000100000000
1-chloro-3-methylhexane,134.6488,621.08,0.418,424.15,CCCCCCCCCCCCCl,00000000000000000001000000100000010000100000000010000000000000000000000000000000100001000000000000000000000000000000000100000000
1-chloro-3-methylpentane,120.62192,591.93,0.343,402.15,CCCCCCCCCCCCCCCCCCCCCl,00000000000000000001000000100000010000100000000010000000000000000000000000000000100001000000000000000000000000000000000100000000
1-chloro-4-(chloromethyl)benzene,161.03004,710.0,0.343,496.15,CCCCCCCCCCCCCCCCCCCCCCl,00000000000000000001000000100000010000100000000010000000000000000000000000000000100001000000000000000000000000000000000100000000
1-chloro-4-ethyl-3-hexene,146.6598,640.48,0.43,446.15,CCCCCCCCCCCCCCCCCCl,00000000000000000001000000100000010000100000000010000000000000000000000000000000100001000000000000000000000000000000000100000000
1-chloro-4-methylpentane,120.62192,586.04,0.343,398.15,CCCCCCCCl,00000000000000000001000000100000010000100000000010000000000000000000000000000000100001000000000000000000000000000000000100000000
1-chloro-cis-2-butene,90.55228,553.11,0.252,357.35,CCCCCCCCCCCCCCCCCl,00000000000000000001000000100000010000100000000010000000000000000000000000000000100001000000000000000000000000000000000100000000
1-chloro-cis-2-pentene,104.57916,577.85,0.296,382.15,CCCCCCCl,00000000000000000001000000100000010000100000000010000000000000000000000000000000100001000000000000000000000000000000000100000000
1-chloro-trans-2-butene,90.55228,554.5,0.252,358.25,Clc1cccc2ccccc12,00000000000000000001000000000000000000000000000001000000000000011000000000000100010000100000000000001000000000100000000000000000
1-chloro-trans-2-pentene,104.57916,579.36,0.296,383.15,CCCCCCCCCCCCCCCCCCCCl,00000000000000000001000000100000010000100000000010000000000000000000000000000000100001000000000000000000000000000000000100000000
1-chlorobutane,92.56816,537.0,0.274,351.58,CCCCCCCCCCl,00000000000000000001000000100000010000100000000010000000000000000000000000000000100001000000000000000000000000000000000100000000
1-chlorodecane,176.72944,679.88,0.547,499.02,CCCCCCCCCCCCCCCCCCCl,00000000000000000001000000100000010000100000000010000000000000000000000000000000100001000000000000000000000000000000000100000000
1-chlorodocosane,345.052,821.75,0.758,668.15,CCCCCCCCCl,00000000000000000001000000100000010000100000000010000000000000000000000000000000100001000000000000000000000000000000000100000000
1-chlorododecane,204.7832,711.02,0.626,536.33,CCCCCCCCCCCCCCCCl,00000000000000000001000000100000010000100000000010000000000000000000000000000000100001000000000000000000000000000000000100000000
1-chloroeicosane,316.99824,800.64,0.782,646.15,CCCCl,00000000000000000001000000100000010000100000000010000000000000000000000000000000100001000000000000000000000000000000000000000000
1-chloroheneicosane,331.02512,810.87,0.774,657.15,CCCCCCCCCCCCCCCCCCCCCCCCCl,00000000000000000001000000100000010000100000000010000000000000000000000000000000100001000000000000000000000000000000000100000000
1-chloroheptadecane,274.9176,773.57,0.764,613.15,CCCCCCCCCCCCCCCl,00000000000000000001000000100000010000100000000010000000000000000000000000000000100001000000000000000000000000000000000100000000
1-chloroheptane,134.6488,621.08,0.418,433.59,CCCCCCCCCCCCCCCCCCCCCCCCl,00000000000000000001000000100000010000100000000010000000000000000000000000000000100001000000000000000000000000000000000100000000
1-chlorohexadecane,260.89072,762.66,0.746,599.75,CCCCCCCCCCCCCCl,00000000000000000001000000100000010000100000000010000000000000000000000000000000100001000000000000000000000000000000000100000000
1-chlorohexane,120.62192,596.19,0.373,408.24,CCCCCCCCCCCCl,00000000000000000001000000100000010000100000000010000000000000000000000000000000100001000000000000000000000000000000000100000000
1-chloronaphthalene,162.61828,785.0,0.383,532.45,CCCCCCCCCCO,00000000000000000000000000100000010000110000000000000000000000000000000000000000100000000100001000000000000000000000000100000000
1-chlorononadecane,302.97136,792.26,0.783,636.15,CCCCCCCCC=C,00000000000000000100000000100000010000100000100000000010000000000000000000000000100000100000000000000000000001000000000100000000
1-chlorononane,162.70256,661.88,0.505,478.37,CCCCCCCCCCC1CCCc2ccccc12,00011000000000000000000000100010010000100000010000000000000000001000000000110000110010100000000000001000000000000000000100010000
1-chlorooctadecane,288.94448,783.25,0.777,625.15,CCCCCCCCCCC1=CCCC1,00001000000000000000000000100010010000100000000000000000000000000000000000100000110000000001000000001000000000000000010100010000
1-chlorooctane,148.67568,642.41,0.462,456.62,CCCCCCCCCCc1cccc2ccccc12,00000000000000000000000000100000010000100000000000000000000000011000010000000100110000100001000000001000000000000000000100000000
1-chloropentadecane,246.86384,750.73,0.722,585.15,CCCCCCCCC#C,00000000000000000001000000100100011000100000000000000000000000000000000000000010100000000000000000000000000000000000000100000000
1-chloropropane,78.54128,503.15,0.228,319.67,CC(N)CN(C)C,01000000000110000011000000010000010000000000000000000001000000000000100000000000100000000000000000000000000000000100000000000000
1-chlorotetracosane,373.10576,843.04,0.703,688.15,CCCCCCCCCCCCCCCCCCCCC=C,00000000000000000100000000100000010000100000100000000010000000000000000000000000100000100000000000000000000001000000000100000000
1-chlorotetradecane,232.83696,738.54,0.694,569.99,CCCCCCCCCCCCCCCCCCCCC#C,00000000000000000001000000100100011000100000000000000000000000000000000000000010100000000000000000000000000000000000000100000000
1-chlorotricosane,359.07888,832.05,0.734,678.15,CCCCCCCCCCCCS,00000000000010000000000000100000010000100000000000010000000000000000000000000000100000000000000000000100000000000000000100000000