name,molweight,critical temperature (K),acentric factor,boiling point (K),SMILES,ECFP_Bits
4-methyl-2-propylphenol,150.22056,780.8,0.541,547.87,CCCCCC(C)C(CC)CC,01000000100000000000000000110000010000100000000000000000000000000000000000000000101000000000000000010000000000000000000101000000
4-methyl-2-thiahexane,118.24316,610.4,0.351,413.15,CCCCC(C)C(CC)CC,01000000100000000000000000110000010000100000000000000000000000000000000000000000101000000000000000010000000000000000000101000000
4-methyl-2-thiapentane,104.21628,585.0,0.271,385.65,CCc1cc(O)ccc1C,00000001000000000000000000000000010000110000000000000000001000000010010000000000110000100000000000001000010100010000000000000000
"4-methyl-3,3-diethylheptane",170.33844,654.88,0.461,478.15,CCCC(C)C(O)CC,01000000100000000000000000110000010000110000000000000000000000000000000000000000100000000000000000010000000000000000000011000000
"4-methyl-3,4-diethylheptane",170.33844,649.4,0.461,474.15,CCCC(C)=CCC,00000000000000000000000000101000010000110000001000100010000000000000000000000000100000000000000100000000000000000000000001000000
"4-methyl-3,5-diethylheptane",170.33844,644.34,0.491,473.15,CCC(C)C(O)CC,01000000100000000000000000010000010000110000000000000000000000000000000000000000100000000000000000010000000000000000000011000000
4-methyl-3-ethyl-1-pentanol,130.23032,605.16,0.773,448.0,CCC(C)C(=O)CC,01100000101000000000000000010000010000110000000000000001000000000000000000000000100000000000000010000000000000000000000000000100
4-methyl-3-ethyl-1-pentene,112.21504,556.43,0.327,380.65,CCCCC(C)C(O)CC,01000000100000000000000000110000010000110000000000000000000000000000000000000000100000000000000000010000000000000000000111000000
4-methyl-3-ethyl-2-pentanol,130.23032,593.79,0.741,437.15,CCCCC(C)C(=O)CC,01100000001000000000000000110000010000110000000000000001000000000000000000000000100000000000000010010000000000000000000100000100
4-methyl-3-ethyl-3-hexanol,144.2572,608.58,0.748,452.0,CCCc1cc(O)ccc1C,00000000000000000000000000100000010000110000000000000000001000000010010000000000110000100001000000001000010100010000000000000000
4-methyl-3-ethyl-cis-2-pentene,112.21504,570.01,0.322,389.15,CCSC(C)CC,01000000100000000000000000010000010001110000000000000000000000000000000000000001100000000000000000000000000000000000100000000000
4-methyl-3-ethyl-trans-2-pentene,112.21504,567.52,0.322,387.45,CCCCCC(C)(CC)CCC,00000000100001000000000000101000010000110000000000000000000000000000000000000000100000000000000000000000000000000010000100000000
4-methyl-3-ethylnonane,170.33844,640.72,0.519,473.15,CCCCC(C)(CC)CCC,00000000100001000000000000101000010000110000000000000000000000000000000000000000100000000000000000000000000000000010000100000000
4-methyl-3-ethyloctane,156.31156,626.99,0.478,456.15,CCCC(C)(O)CCC,00000000100000000000000000101000010000110000000000000000000000000000000000000000100000000000000000000000000000000011100000000000
4-methyl-3-ethylphenol,136.19368,739.51,0.495,509.15,CCCC(C)(CCC)C(C)C,01000000100000000000000000111000010000100000000000000000000000000010000000000000100000000000000000000001000000000010000000000000
4-methyl-3-heptanol,130.23032,578.89,0.773,428.55,CCCCC(C)(CCC)C(C)C,01000000100000000000000000111000010000100000000000000000000000000010000000000000100000000000000000000001000000000010000100000000
4-methyl-3-heptene,112.21504,564.74,0.328,394.15,CCCCCC(C)(O)CCC,00000000100000000000000000101000010000110000000000000000000000000000000000000000100000000000000000000000000000000011100100000000
4-methyl-3-hexanol,116.20344,578.7,0.731,422.15,CCCCC(C)(O)CCC,00000000100000000000000000101000010000110000000000000000000000000000000000000000100000000000000000000000000000000011100100000000
4-methyl-3-hexanone,114.18756,588.11,0.451,409.15,CCCC(C)(CCC)CCC,00000000100001000000000000101000010000100000000000000000000000000000000000000000100000000000000000000000000000000010000000000000
4-methyl-3-octanol,144.2572,611.68,0.814,459.0,CCCCC(C)(CCC)CCC,00000000100001000000000000101000010000100000000000000000000000000000000000000000100000000000000000000000000000000010000100000000
4-methyl-3-octanone,142.24132,629.65,0.541,456.62,CCCC(C)(CCC)C(C)(C)C,00000000100000000000000000101000010000100000000000000000000000000000000000000000100000000000001001000000000000000010000000000000
4-methyl-3-propylphenol,150.22056,780.8,0.541,547.87,CCC(O)C(C)C(CC)CC,01000000100000000000000000010000010000110000000000000000000000000000000000000000101000000000000000010100000000000000000010000000
4-methyl-3-thiahexane,118.24316,601.01,0.351,406.8,CCCCC(CC)C(C)CCC,01000000100000000000000000110000010000100000000000000000000000000000000000000000101000000000000000010000000000000000000101000000
4-methyl-4-ethylnonane,170.33844,642.92,0.489,472.15,CCCC(C)C(CC)CCC,01000000100000000000000000110000010000100000000000000000000000000000000000000000101000000000000000010000000000000000000001000000
4-methyl-4-ethyloctane,156.31156,626.62,0.448,453.15,CCCC(C)C(CCC)C(C)C,01000000000000000000000000110000010000100000000000000000000000001000000000000000100000000000000000010000000001000000000001000000
4-methyl-4-heptanol,130.23032,589.8,0.738,434.25,CCCC(C)C(CCC)CCC,01000000000000000000000000110000010000100000000000000000000000000000000000000000101000000000000000010000000000000000000001000000
4-methyl-4-isopropylheptane,156.31156,630.56,0.419,453.15,CCCC(C)CC(CC)CCC,01000000100010000000000000110000010000101000000000000000000000000000000000000000100000010000000000010000000000000000000000000000
4-methyl-4-isopropyloctane,170.33844,645.29,0.461,471.15,CCCC(C)CC(CC)CC,01000000100010000000000000110000010000101000000000000000000000000000000000000000100000010000000000010000000000000000000000000000
4-methyl-4-nonanol,158.28408,637.32,0.819,482.0,CCCC(C)CCC(CC)CC,01000000100010000000000000110000010000100000000000000000000000000000000000000000100000010000000000010000000000000000000000000000
4-methyl-4-octanol,144.2572,608.26,0.78,454.15,CN(C)c1ccc(C)cc1,00000000000100000000000000000001010010000000000000000000001000000000000010000000010000100000000000001000000000000100000000000000
4-methyl-4-propylheptane,156.31156,623.85,0.448,451.15,CC(C)Nc1ccc(C)cc1,11001000000000000000000000010001010000000000000000100000001000010000000000000000010000100000000000001000000000000000000000000000
4-methyl-4-propyloctane,170.33844,637.48,0.489,468.15,CCCNc1ccc(C)cc1,10000000100000000000000000110001010000100000000000000000001000010000000000000000110000100000000000001000000000000000000000000000
4-methyl-4-tert-butylheptane,170.33844,653.12,0.403,471.15,CCCC(C)\C=C/C,01000000000000000000000100110000010000100000000000000010000000000000000000001000100000001000000000010000000000000000000000000000
4-methyl-5-ethyl-3-heptanol,158.28408,616.21,0.822,466.0,CCC(C)\C=C/C,01000000100000000000000100010000010000100000000000000010000000000000000000001000100000001000000000000000000000000000000000000000
4-methyl-5-ethylnonane,170.33844,638.02,0.519,471.15,C\C=C/C(C)C,01000000000000000000000000010000011000000000000000000010000000000000000000001000100000001000000000000000000000000000000000000000
4-methyl-5-ethyloctane,156.31156,622.87,0.478,453.15,CCCC(C)C(CC)CCC,01000000100000000000000000110000010000100000000000000000000000000000000000000000101000000000000000010000000000000000000001000000
4-methyl-5-isopropyloctane,170.33844,636.16,0.491,467.15,CC1CCC(=O)O1,00000000001000001000000000000110010000000000010000000000001000000000000000100010000000000000000000001000000000100000000000010000
4-methyl-5-propyloctane,170.33844,635.31,0.519,469.15,CCCC(C)\C=C\C,01000000000000000000000100110000010000100000000000000010000000000000000000001000100000001000000000010000000000000000000000000000
4-methyl-6-ethylnonane,170.33844,635.31,0.519,469.15,CCC(C)\C=C\C,01000000100000000000000100010000010000100000000000000010000000000000000000001000100000001000000000000000000000000000000000000000
4-methyl-6-ethyloctane,156.31156,622.87,0.478,453.15,C/C=C/C(C)C,01000000000000000000000000010000011000000000000000000010000000000000000000001000100000001000000000000000000000000000000000000000
"4-methyl-N,N-dimethylaniline",135.20896,705.58,0.413,484.15,Cc1ccc(CO)cc1,00000000000000000000000000000001010000010000000000000000001000000000010000000000110000100010001000001000000000000000000000000000
4-methyl-N-isopropylaniline,149.23584,690.0,0.69,493.15,Cc1ccc(cc1)c2ccccc2,00000000100000000000000000000001010000000000000000000000001000001000000000000000010000100000000000001000000000000000000000000000
4-methyl-N-propylaniline,149.23584,690.0,0.69,508.15,CCCNC1=CC=C(C=C1)C,10000000100000000000000000110001010000100000000000000000001000010000000000000000110000100000000000001000000000000000000000000000
4-methyl-cis-2-heptene,112.21504,563.49,0.347,387.15,CC1CCC=CC1,00000000000000000000000000000110010000000000010000000000000000000000000000000000010000100000000000000000100000000000000000011000
4-methyl-cis-2-hexene,98.18816,534.04,0.302,359.46,CC1CCC(N)CC1,00000000000000000001000000000110010000001000010000000000000000000000000000000000000000000000000000000000000000000000000000011000
4-methyl-cis-2-pentene,84.16128,499.0,0.244,329.53,CC1CC=CC1,00000000000000000000000000000110010000000000000000000000000000000000000000000000010000100000000000000000100000000000000000011000
4-methyl-cis-3-heptene,112.21504,574.35,0.351,395.15,CCCCCCC(C)CCC,01000000000000000000000000110000010000100000000000000000000000000000000000000000100000010000000000010000000000000000000100000000
4-methyl-gamma-butyrolactone,100.11732,727.0,0.403,480.65,Cc1ccc(Cc2ccccc2)cc1,00000000000000000000001000000001010000000000000000000000001000001000000000000000110000100010000000001000000000000000000000000000
4-methyl-trans-2-heptene,112.21504,563.49,0.347,387.15,CCCC(C)CCC,01000000000000000000000000110000010000100000000000000000000000000000000000000000100000010000000000010000000000000000000000000000
4-methyl-trans-2-hexene,98.18816,535.9,0.302,360.71,CCC(C)/C=C/C,01000000100000000000000100010000010000100000000000000010000000000000000000001000100000001000000000000000000000000000000000000000
4-methyl-trans-2-pentene,84.16128,501.0,0.255,331.75,Cc1cncc2ccccc12,00000000000000000000000000000000010000000000000000000000001000011001000000000100010000100000000000001000000000010000000000100001
4-methyl-trans-3-heptene,112.21504,574.35,0.351,395.15,CCCCCC(C)CCC,01000000000000000000000000110000010000100000000000000000000000000000000000000000100000010000000000010000000000000000000100000000
4-methylbenzenemethanol,122.1668,681.0,0.748,490.15,CCCCC(C)CCC,01000000000000000000000000110000010000100000000000000000000000000000000000000000100000010000000000010000000000000000000100000000
4-methylbiphenyl,168.23828,793.4,0.439,543.15,CC(C)CCC=O,01000000001000000100000000010000010000000000000000000011000000000000000000000000100000000000000000010000100010000000000000000000
4-methylcyclohexanol; (cis+trans),114.18756,635.0,0.685,445.15,CC(C)CCC#N,01000000000000000000001000010100011000000000000000000001000000000100000000000000100000000000000000010000100000000000000000000000
4-methylcyclohexene,96.17228,579.3,0.241,375.89,CC(C)CCC(O)=O,01000100001000000000000000011000010000010000000000000001000000000000000001000000100000000000000000010000000000000000000000000100
4-methylcyclohexylamine,113.20284,622.0,0.386,425.65,Cc1ccncc1,00000000000000000000000000000001010000000000000000000000001000000001000000100000010000100000000000001000000000000000000000100000
4-methylcyclopentene,82.1454,527.0,0.236,338.82,Cc1ccnc2ccccc12,00000000000000000000000000000000010000000000100000000000001000001000000001100100010000100000000000001000000000010000000000100000
4-methyldecane,156.31156,629.99,0.507,461.05,CC1CCSCC1,00000000000000000000010000000110010100000000010000000000000000000000000000000001000000000000000000000000000000000000000000011000
4-methyldiphenylmethane,182.26516,786.22,0.478,555.11,CCCCCCCC(C)CCC,01000000000000000000000000110000010000100000000000000000000000000000000000000000100000010000000000010000000000000000000100000000
4-methylheptane,114.23092,561.74,0.371,390.86,O=CN1CCOCC1,00000000001100001000000000010010000000010000000100000010000000000000000010000000000000000000000000000000000010000000000000000000
"4-methylhexanoic acid, (±)",130.18696,680.0,0.717,490.65,[O-][N+](=O)c1ccc(Nc2ccccc2)cc1,10000000001000000000000000000000000000000001000000000000000000011000001000010000010000100000000000001000000100000100000000100000
4-methylisoquinoline,143.1882,778.59,0.428,529.15,CCCCCC(CCC)C(O)=O,01000100001000000000000000100000010000110000000000001000000000000000000000000000100001000000000000010000000000000000000100000100
4-methylnonane,142.28468,610.0,0.465,438.85,CCCCCC(O)CCC,01000000000000000000000000100000010000110000000000000000000000000000000000000000100000000000000000010000000000000000001100000000
4-methyloctane,128.2578,587.65,0.413,415.59,CCCCC(C)CCC,01000000000000000000000000110000010000100000000000000000000000000000000000000000100000010000000000010000000000000000000100000000
4-methylpentanal,100.16068,576.34,0.433,395.15,CCCCCC(=O)CCC,00000000001000000000000010101000010000110000000000000000000000000000000000000000100000000000000000000000000000000000000100000100
4-methylpentanenitrile,97.16008,615.53,0.442,427.15,CC(C)CCC#N,01000000000000000000001000010100011000000000000000000001000000000100000000000000100000000000000000010000100000000000000000000000
4-methylpentanoic acid,116.16008,661.0,0.652,473.65,CCCCCCCCCc1ccc(O)cc1,00000000000000000000000000100000010000110000000000000000000000000010000000000000110000100011000000001000010000000000000100000000
4-methylpyridine,93.12832,646.15,0.301,418.5,CC1=CC=NC=C1,00000000000000000000000000000001010000000000000000000000001000000001000000100000010000100000000000001000000000000000000000100000
4-methylquinoline,143.1882,790.59,0.452,538.81,CCCCC#CCCC,00000000000000000000000100100100011000100000000000000000000000000000000000000000100000000000000000000000000000000000000100000000
4-methylthiacyclohexane,116.22728,669.27,0.244,431.79,CCCCC(CCC)C(O)=O,01000100001000000000000000100000010000110000000000001000000000000000000000000000100001000000000000010000000000000000000100000100
4-methylundecane,170.33844,649.36,0.548,482.15,CCCCC(O)CCC,01000000000000000000000000100000010000110000000000000000000000000000000000000000100000000000000000010000000000000000001100000000
4-morpholinecarboxaldehyde,115.132,762.0,0.393,513.15,C1COCCN1C=O,00000000001100001000000000010010000000010000000100000010000000000000000010000000000000000000000000000000000010000000000000000000
4-nitro-N-phenylaniline,214.22368,814.0,0.766,600.0,CCCCC(=O)CCC,00000000001000000000000010101000010000110000000000000000000000000000000000000000100000000000000000000000000000000000000100000100
4-nonanecarboxylic acid,172.2676,713.0,0.877,473.73,CCCCCCCCc1ccc(O)cc1,00000000000000000000000000100000010000110000000000000000000000000010000000000000110000100011000000001000010000000000000100000000
4-nonanol,144.2572,618.15,0.846,466.15,CCCC#CCCC,00000000000000000000000100100100011000100000000000000000000000000000000000000000100000000000000000000000000000000000000000000000
"4-nonanol, (S)",144.2572,614.43,0.768,465.65,OC(=O)CCC=C,00000100001000000100000000001000000000010000100000000010000000000000000001000000100000100000000000000000000001000000000000000100
4-nonanone,142.24132,629.65,0.541,460.65,CC(=O)OCCCC=C,00000000001101000101000000000000010000010000100000000011000000000000000000000000100000100000000000000000000001000000000101000100
4-nonene; (cis+trans),126.24192,593.62,0.411,419.05,CCCCCc1ccc(O)cc1,00000000000000000000000000100000010000110000000000000000000000000010000000000000110000100011000000001000010000000000000100000000
4-nonylphenol,220.35496,738.5,0.793,568.15,CCCC(CCC)=CCC,00000000000000000000000000101000010000110000001000001010000000000000000000000000100000000000000100000000000000000000000000000000
"4-nonylphenol, isomers",220.35496,738.5,0.793,568.15,CCCC(O)(CCC)CCC,00000000100000000000000000101000010000110000000000000000000000000000000000000000100000000000000000000000000000000010100000000000
4-nonyne,124.22604,621.49,0.373,427.15,CCCC(CCC)CCC,01000000000010000000000000100000010000100000000000000000000000000000000000000000100000000000000000010000000000000000000000000000
4-octanecarboxylic acid,158.24072,703.0,0.831,358.15,CCCCCC(CCC)CCC,01000000000010000000000000100000010000100000000000000000000000000000000000000000100000000000000000010000000000000000000100000000
4-octanol,130.23032,604.27,0.806,449.75,CCCCC(CCC)CCC,01000000000010000000000000100000010000100000000000000000000000000000000000000000100000000000000000010000000000000000000100000000
"4-octanol, (±)",130.23032,600.92,0.733,449.45,CCCc1ccc(O)cc1,00000000000000000000000000100000010000110000000000000000000000000010000000000000110000100011000000001000010000000000000000000000
4-octanone,128.21444,624.0,0.528,436.15,CCCc1ccncc1,00000000000000000000000000100000010000100000000000000000000000000001000000100000110000100011000000001000000000000000000000100000
4-octylphenol,206.32808,765.0,0.631,423.15,CCCC(C)c1ccc(O)cc1,01000000000000000000000000110000010000110000000000000000000000000010000000000000110001100000000000011000010000000000001000000000
4-octyne,110.19916,594.1,0.359,404.75,CCC(C)c1ccc(N)cc1,01000000100000000001000000010000010000100000000001000000000000000000000000000000110001100000000000001000000000000000001010000000
4-pentenoic acid,100.11732,676.0,0.426,461.15,CCC(C)c1ccc(O)cc1,01000000100000000000000000010000010000110000000000000000000000000010000000000000110001100000000000001000010000000000001000000000
4-pentenyl acetate,128.17108,592.33,0.432,418.15,Cc1cc(c(C)cc1O)C(C)(C)C,00000000100000000000000000000000010100010000000000000000001100000010000100000000010000000000000000001000000100010010000000000000
4-pentylphenol,164.24744,751.0,0.569,523.65,Cc1cc(cc(C)c1O)C(C)(C)C,00000000110000000000000000000000010000010000000000000000001100000010000000100000010000000000000000001000000100010010000000000000
4-propyl-3-heptene,140.2688,616.98,0.457,433.65,Cc1cc(ccc1O)C(C)(C)C,00000000110000000000000000000000010000010000000000000000001100000010000100000000010000100000000000001000000100010010000000000000
4-propyl-4-heptanol,158.28408,617.69,0.819,467.15,Cc1ccc(cc1C)C(C)(C)C,00000000110000000000000000000000010000000000000000000000001100000000000000000000010000100000000000001000000100010010000000000000
4-propylheptane,142.28468,601.0,0.444,430.66,CC(C)(C)c1ccc(N)cc1,00000000110000000001000000000000010000000000000001000000000100000000000000000000010000100000000000001000000000000010000010000000
4-propylnonane,170.33844,635.9,0.548,472.15,CCCC(CCC)C(C)(C)C,01000000100000000000000000100000110000100000000000000000000000000000000000000000100000000000000000010000000001000010000000000000
4-propyloctane,156.31156,619.2,0.507,453.15,CCCCC(CCC)C(C)(C)C,01000000100000000000000000100000110000100000000000000000000000000000000000000000100000000000000000010000000001000010000100000000
4-propylphenol,136.19368,736.87,0.496,506.65,CC(C)(C)c1ccc(O)cc1,00000000110000000000000000000000010000010000000000000000000100000010000000000000010000100000000000001000010000000010000000000000
4-propylpyridine,121.18208,653.0,0.376,458.15,CC(C)(C)c1ccc(C=C)cc1,00000000110000000000000000000000010000000000000000000010000100000000000000000000010000100000000000011000000001000110000000000000
4-sec-amylphenol,164.24744,751.0,0.569,409.65,CCCCCCCC(=O)CCC,00000000001000000000000010101000010000110000000000000000000000000000000000000000100000000000000000000000000000000000000100000100
4-sec-butylaniline,149.23584,690.0,0.69,511.15,CCCCCCC#CCCC,00000000000000000000000100100100011000100000000000000000000000000000000000000000100000000000000000000000000000000000000100000000
4-sec-butylphenol,150.22056,740.54,0.51,515.25,Oc1ccc(C=C)cc1,00000000000000000000000000000000000000010000000000000010000000000010000000000000010000100000000000011000010001000100000000000000