name,molweight,critical temperature (K),acentric factor,boiling point (K),SMILES,ECFP_Bits
glutaric anhydride,114.10084,838.0,0.537,562.69,CCCCCCCCCCCCCCCC(O)=O,00000100001000000000000000101000010000110000000000000000000000000000000001000000100000000000000000000000000000000000000100000100
glutaronitrile,94.11612,782.0,0.603,559.15,CCCCCCCCCCCCCCCCN,00000000000000000001000000100000010000100000000010000000000000000000000000000000100001000000000000000000000000000000000100000000
glycerol,92.09472,850.0,0.513,561.0,CCCCCCCCCCCCCCCCC1CCCCC1,00001000000000000000000000100110010000100000010000000000000000001000000000000000100000000000000000000000000000000000000100010000
glycerol 1-monooleate,356.5462,885.0,0.992,714.0,CCCCCCCCCCCCCCCCC1CCCC1,00001000000000000000000000100110010000100000010000000000000000001000000000000000100000000000000000000000000000000000000100010000
glyceryl triacetate,218.20656,704.0,0.839,532.15,CCC=CC=C,00000000000000001000000000000000010000100000001010000010000000000000000000001000100000100000000000000000000001000000000000000000
glycolic acid,76.05196,616.0,1.059,443.0,CCc1c(CC)c(CC)c(CC)c(CC)c1CC,00000001000000000000000000000000010000100000000000000000000000000000000000000000100000000000000000001000000000000010000000000000
glyoxal,58.03668,495.0,0.413,323.55,FC(F)(F)C(=O)C(F)(F)F,00000000101000000000000000000000000000010000010000000000000000000000000000000000000000000000000000000000001000000010000000010100
guaiacol,124.13932,697.0,0.571,478.15,FC(F)(F)C(F)(F)F,00000000100000000000000000000000000000000000010000000000000100000000000000000000000000000000000000000000000000000010000000000000
halothane,197.3818496,496.0,0.275,323.35,FC(F)=C(F)C(F)(F)F,00000000100000000000000000000000000000010000010100000000000000000000000000000000000000000000000001000000001000000010000000001000
heneicosane,296.58036,778.0,0.942,629.65,Cc1c(C)c(C)c(C)c(C)c1C,00000000000000000000000000000000010000000000000000000000001000000000000000000000000000000000000000001000000000000000000000001000
heneicosanenitrile,307.56328,824.05,0.812,670.15,C[Si]1(C)O[Si](C)(C)O[Si](C)(C)O1,00000000000000001000000100000000010000000000000000000000100000100000000000000000000000000000000000100000000000000000000000000000
heneicosylamine,311.59504,822.4,0.844,668.15,CC1=C(C)C2(C)C(=C(C)C12C)C,00000000000000000000010000000000010010000000000000000000001000000000000000001000000000000000000000001000000000000000000000100000
heneicosylbenzene,372.67812,860.93,0.733,702.15,CN([SiH](C)C)[Si](C)(C)C,10000000000100001000000000000000010000000000000000000010000000000000000000000000000000000000000000000000001001000100000000100010
heneicosylcyclopentane,364.69888,850.13,0.705,693.15,C[Si](C)(C)O[Si](C)(C)C,00000000000000001000000000000000010000000000000000000001000000000000000000000000100010000000000000000000000000000000000000100000
heptadecanal,254.45636,752.2,0.849,598.15,O=C=NCCCCCCN=C=O,00000000001000001000000000000000001000000000000000000000000000000000000000000000100101000000000000000000000000000000000110010000
heptadecane,240.47284,736.0,0.77,575.3,NCCCCCCN,00000000000000000001000000000000000000000000000010000000000000000000000000000000100001000000000000000000000000000000000100000000
heptadecanenitrile,251.45576,779.15,0.835,622.15,C1CCCNCC1,00001000000000000000000000001010000000000000000001000000000000000000000000000000000000000010000000000000000000000000000000000000
heptadecanoic acid,270.45576,793.0,1.028,635.75,CCCCCC=O,00000000001000000100000000100000010000100000000000000010000000000000000000000000100000000000000000000000100010000000000100000000
heptadecanol (mixed primary isomers),256.47224,767.2,0.798,599.15,CCCCCC,00000000000000000000000000100000010000100000000000000000000000000000000000000000100000000000000000000000000000000000000100000000
heptadecylamine,255.48752,767.8,0.869,616.15,C[C@@H](Cl)CC[C@H](C)Cl,01000000000000000011000000010000010000000000000000000000000000000000000000000000100000010000000000010000000000000000000000000000
heptadecylbenzene,316.5706,826.0,0.92,662.15,CCCCCC#N,00000000000000000000001000100100011000100000000000000000000000000100000000000000100000000000000000000000100000000000000100000000
heptadecylcyclohexane,322.61824,823.97,0.748,664.15,CCCCCC(O)=O,00000100001000000000000000101000010000110000000000000000000000000000000001000000100000000000000000000000000000000000000100000100
heptadecylcyclopentane,308.59136,808.79,0.758,650.15,CCCCCCOC(=O)C(C)(C)C,00000000101001100001000000100000010000110000000000000001000000000000001000000000100000000000000000000000000000000010000100000100
heptafluoropropane,170.0297624,374.83,0.355,256.79,CCCCCCOC(=O)C(C)CC,01000000101001000001000000110000010000110000000000000001000000000000000000000000100000000000000010000000000000000000000100000100
heptane,100.20404,540.2,0.35,371.58,CCCCCCOC(C)=O,00000000001101000001000000100000010000110000000000000001000000000000000000000000100000000000000000000000000000000000000101000100
heptanedioic acid,160.16988,805.0,1.116,615.25,CCCCCCOC(=O)CCC,00000000001001000001000000101000010000110000000000000001000000000000000000000000100000000000000000000000001000000000000100000100
heptanenitrile,111.18696,643.1,0.518,457.65,CCCCCCOC=O,00000000001001000000000000100001010000100000000000000011000000000000000000000000100000000000000000000010000010000000000100000000
heptanoic acid,130.18696,677.3,0.756,496.15,CCCCCCOC(=O)CCCCCC,00000000001001000001000000101000010000110000000000000001000000000000000000000000100000000000000000000000001000000000000100000100
heptyl acetate,158.24072,637.0,0.595,465.55,CCCCCCOC(=O)CCCCC,00000000001001000001000000101000010000110000000000000001000000000000000000000000100000000000000000000000001000000000000100000100
heptyl butanoate,186.29448,675.5,0.496,498.25,CCCCCCOC(=O)CC(C)C,01000000001001000001000000110000010000110000000000000001000000000000000000000000100000000000000000000000001000000000000100000100
heptyl formate,144.21384,628.0,0.534,451.25,CCCCCCS,00000000000010000000000000100000010000100000000000010000000000000000000000000000100000000000000000000100000000000000000100000000
heptyl hexanoate,214.34824,682.0,0.759,534.15,CCCCCCOC,00000000000001000000000000100000010000100000000000000001000000000000000001000000100000000000000000000000000001000000000100000000
heptyl mercaptan,132.27004,645.0,0.419,450.09,CCCCCCOC(=O)CCCC,00000000001001000001000000101000010000110000000000000001000000000000000000000000100000000000000000000000001000000000000100000100
heptyl nonyl phthalate,390.56332,841.0,1.094,687.0,CCCCCCOC(=O)CC,00100000001001000001000000100000010000110000000000000001000000000000000000000000100000000000000000000000001000000000000100000100
heptyl pentanoate,200.32136,667.0,0.699,518.35,CCCCCCN,00000000000000000001000000100000010000100000000010000000000000000000000000000000100001000000000000000000000000000000000100000000
heptyl propanoate,172.2676,659.6,0.508,483.15,CCCCCCc1ccccc1,00000000000000000000000000100000010000100000000000000000000000001000000000000000110000100011000000001000000000000000000100000000
heptyl undecyl phthalate,418.61708,878.0,1.021,717.0,CCCCCCC1CCCCC1,00001000000000000000000000100110010000100000010000000000000000001000000000000000100000000000000000000000000000000000000100010000
heptylamine,115.21872,607.0,0.511,430.05,CCCCCCC1CCCC1,00001000000000000000000000100110010000100000010000000000000000001000000000000000100000000000000000000000000000000000000100010000
heptylbenzene,176.3018,714.0,0.529,519.25,OCCC#N,00000000000000000000001000000100001000010000000000000000000000000100000000000000100000000100001000000000100000000000000000000000
heptylcyclohexane,182.34944,708.63,0.498,518.06,NN,10000000000000000001000000000000000000000000000000000000000000000000000000000000000000000000000000000000000000000000000000000000
heptylcyclopentane,168.32256,679.0,0.515,497.3,N(Nc1ccccc1)c2ccccc2,10000000000000000000000000000000000000000000100000000000000000011000000000000000010000100000000000001000000000000000000000000000
hex-3-ene,84.16128,506.59,0.25,339.95,Br,00000000010000000000000000000000000000000000000000000000000000000000000000000000000000000000000000000000000000000000000000000000
"hexachloro-1,3-butadiene",260.7602,738.0,0.168,486.15,Cl,00100000000000000000000000000000000000000000000000000000000000000000000000000000000000000000000000000000000000000000000000000000
hexachlorobenzene,284.7822,825.0,0.497,582.55,C#N,00000000000000000001000000000000000000000000000000000000000000000000000000000000000000000000000000000000110000000000000000000000
hexachlorocyclopentadiene,272.7712,746.0,0.383,512.15,C#N,00000000000000000001000000000000000000000000000000000000000000000000000000000000000000000000000000000000110000000000000000000000
hexachloroethane,236.7382,695.0,0.239,458.0,SS,00000000100000000000000000000000000000000000000000000000000000000000000000000000000000000000000000000100000000000000000000000000
hexadecamethylheptasiloxane,533.15202,671.8,0.887,559.94,F,00000000000000000000000000000000000000000000000000000010000000000000000000000000000000000000000000000000000000000000000000000000
hexadecanal,240.42948,740.1,0.833,584.15,I,00000000000000000000000001000000000000000000000000000000000000000000000000000000000000000000000000000000000000000000000000000000
hexadecane,226.44596,723.0,0.717,560.01,OO,00000100000000000000000000000000000000010000000000000000000000000000000000000000000000000000000000000000000000000000000000000000
hexadecanenitrile,237.42888,768.13,0.823,609.15,[SeH2],00000000000000000000000010000000000000000000000000000000000000000000000000000000000000000000000000000000000000000000000000000000
hexadecanoic acid,256.42888,785.0,0.983,624.15,S,00000000000000000000000000000010000000000000000000000000000000000000000000000000000000000000000000000000000000000000000000000000
hexadecylamine,241.46064,757.5,0.826,601.15,[TeH2],00000000000000000000000000000000000000000000000000000000000000000000000000000000000000000000010000000000000000000000000000000000
hexadecylcyclohexane,308.59136,813.42,0.741,652.16,OCC#N,00010000000000000000001000000000001000010000000000000000000000000100000000000000100000000000001000000000100000000000000000000000
hexadecylcyclopentane,294.56448,797.25,0.748,637.16,NO,00000000000000000101000000000000000000010000000000000000000000000000000000000000000000000000000000000000000000000000000000000000
hexadiene,82.1454,526.51,0.25,344.64,CC(C)Cc1ccc(cc1)C(C)C(O)=O,01001100001000000000000000010000010000010000000000001001000000000000000000000001110001100010000000001000000000000000000000000100
hexaethylbenzene,246.4362,746.0,0.753,571.16,C1Cc2ccccc2C1,00001000000000000000000000000010000000000000000000000000000000001000000000100000010010100000000000001000000000000000000000000000
hexafluoroacetone,166.0228192,357.14,0.364,245.88,C1C=Cc2ccccc12,00000000000000000000000000000010000100001000000000000000000000001000000000000000010010100000000000001000100001000000000000000000
hexafluorobenzene,186.0564192,516.73,0.395,353.41,[nH]1ccc2ccccc12,00000000000000000000000000000000000000100000000000000000000000011000000000000000010000100010000000101000000000000000000100000000
hexafluoroethane,138.0124192,292.8,0.249,194.95,[I],00000000000000000000000000000000000000000000000000000000000000000000000000000000100000000000000000000000000000000000000000000000
hexamethylbenzene,162.27492,758.0,0.496,536.6,Ic1ccccc1,00000000000000000000010000000000000000000000000000010000001000001000000000000000010000100000000000001000000000000000000000000000
hexamethylcyclotrisiloxane,222.46362,554.2,0.474,408.26,IC(I)I,01000000000000001000010010000000000000000000000000000000000000000000000000000000000000000000000000000000000000000000000000000000
hexamethyldisilazane,161.3946,544.0,0.51,399.15,C[Si](C)(C)N[Si](C)(C)C,10000000000000001000000000000000010000010000000000000000000000000100000000000000000000000000000000000000000000000000000000100000
hexamethyldisiloxane,162.37932,518.7,0.415,373.67,CCCCCCCC(=O)OCCC(C)C,01000000001001000001000000111000010000110000000000000001000000000000000000000000100000000000000000010000001000000000000100000100
hexamethylene diisocyanate,168.19556,720.8,0.729,528.15,CC(C)C,01000000000000000000000100010000010000000000000000000000000000000000000000000000000000000000000000000000000000000000000000000000
hexamethylenediamine,116.20652,660.0,0.635,473.0,CC(C)CO,01000000000000000000000000010000010000010000000000000001000000000000000000000000100000000000001000100000000000000000000000000000
hexamethyleneimine,99.17596,624.0,0.345,411.15,CC(C)=C,00000000000000000000000000000000010000010000000000000000000000000000000001000000000000100000000000000000000000000000000001000010
hexanal,100.16068,591.0,0.387,401.45,CCCCCC=O,00000000001000000100000000100000010000100000000000000010000000000000000000000000100000000000000000000000100010000000000100000000
hexane,86.17716,507.6,0.301,341.88,CC(C)COC(=O)CC(C)C,01000000001000000001000000010000010000010000000000000001000000000000000000000000100000000000000000000000001000000000001000000100
"hexane, 2,5-dichloro-, (R*,S*)-",155.06668,633.09,0.397,444.73,CC(C)CCC(=O)OCC(C)C,01000000001000000001000000011000010000010000000000000001000000000000000000000000100000000000000000010000001000000000001000000100
hexanenitrile,97.16008,622.05,0.474,436.75,CC(C)COC(C)=O,01000000001100000001000000010000010000010000000000000001000000000000000000000000100000000000000000000000000000000000001001000100
hexanoic acid,116.16008,660.2,0.73,478.85,CC(C)COC(=O)C=C,01000000001000000001000000010000010000010000000001000011000000010000000000000000100000100000000000000000000001000000001000000100
"hexyl 2,2-dimethylpropanoate",186.29448,677.2,0.621,489.73,CCCC(=O)OCC(C)C,01000000001000000001000000111000010000110000000000000001000000000000000000000000100000000000000000000000001000000000001000000100
hexyl 2-methylbutyrate,186.29448,652.0,0.639,489.73,CC(C)COCC(C)C,01000000000000000000000000010000010000000000000000000001000000000000000010000000100000000000000000000000000000000000001000000000
hexyl acetate,144.21384,618.0,0.54,444.65,CC(C)COC=O,01000000001000000000000000010001010000000000000000000011000000000000000000000000100000000000000000000010000010000000001000000000
hexyl butanoate,172.2676,657.2,0.474,479.15,CCCCCCC(=O)OCC(C)C,01000000001000000001000000111000010000110000000000000001000000000000000000000000100000000000000000000000001000000000001100000100
hexyl formate,130.18696,607.0,0.483,428.65,CCCCCCCC(=O)CC(C)C,01000000001000000000000010111000010000110000000000000001000000000000000000000000100000000000000000000000000000000000000100000100
hexyl heptanoate,214.34824,682.0,0.759,534.15,CCCCCC(=O)OCC(C)C,01000000001000000001000000111000010000110000000000000001000000000000000000000000100000000000000000000000001000000000001100000100
hexyl hexanoate,200.32136,667.0,0.699,519.15,CC(C)COC(=O)C(C)C,01000000001000000001000000010000010000010000000000000001000000000000010000000000100000000000000000000000000000000000001000000100
hexyl isovalerate,186.29448,652.0,0.639,489.73,CC(C)CN=C=O,01000000001000000000000000010000011000000000000000000001000000000000000000000000100101000000000000000000000000000000000010010000
hexyl mercaptan,118.24316,623.0,0.368,425.81,CC(C)C[N+]#[C-],01000000000000000010000000010000010000001000000000000001000000000000000000001000100000000010000000000001000000000000000000000000
hexyl methyl ether,116.20344,558.21,0.307,399.25,CC(C)CS,01000000000000000000000000010000010000000000000000010001000000000100000000000000100000000000000000000100000000000000000000000000
hexyl pentanoate,186.29448,652.0,0.639,499.45,CC(C)COC(=O)C(C)=C,01000000001000000001000000010000010000010000000000000001100000000000000001000000100000100000000000000000000000000000001001000110
hexyl propanoate,158.24072,640.0,0.488,463.15,CCCCC(=O)OCC(C)C,01000000001000000001000000111000010000110000000000000001000000000000000000000000100000000000000000000000001000000000001100000100
hexylamine,101.19184,584.0,0.458,405.85,CCC(=O)OCC(C)C,01100000001000000001000000010000010000110000000000000001000000000000000000000000100000000000000000000000001000000000001000000100
hexylbenzene,162.27492,698.0,0.479,499.26,CC(C)COC=C,01000000000000000000000000010000010000000000000000000011000000000000000000000000100100100000000000000010000001000000001000000000
hexylcyclohexane,168.32256,691.81,0.456,497.86,CC(C)CN,01000000000000000001000000010000010000000000000000000001000000000000000000000000100001000000000000000000000000000000010000000000
hexylcyclopentane,154.29568,667.67,0.442,476.26,CC(C)Cc1ccccc1,01000000000000000000000000010000010000000000000000000001000000001000000000000001110000100010000000001000000000000000000000000000
hydracrylonitrile,71.07884,690.0,0.826,494.15,CC(C)CC1CCCCC1,01001000000000000000000000010110010000000000010000000011000000000000000000000000100000000000000000000000000000000000000000010000
hydrazine,32.04524,653.15,0.3142,386.65,CC(C)CC1CCCC1,01001000000000000000000000010110010000000000010000000011000000000000000000000000100000000000000000000000000000000000000000010000
hydrazobenzene,184.24076,939.0,0.672,679.0,CC(C)C=O,01000000001000000000000000010000011000000000000000000010000000000000000000000000000000000000000000000000000010000000000000001000
hydrogen bromide,80.91194,363.15,0.0693,206.45,CC(C)C(O)=O,01000100001000000000000000010000010000010000000000001000000000000000010000000000000000000000000000000000000000000000000000000100
hydrogen chloride,36.46064,324.65,0.1315,188.15,CC(C)C#N,01000000000000000000001000010000011000000000000000000000000010000000000000000000000000000100000000000000100000000000000000000000
hydrogen cyanide,27.02568,456.65,0.41,299.15,CC(C)CCCCCCC=O,01000000001000000100000000010000010000000000000000000011000000000000000000000000100000000000000000010000100010000000000100000000
hydrogen cyanide,27.02568,456.65,0.41,298.85,CC(C)CCCCCCCO,01000000000000000000000000010000010000010000000000000001000000000000000000000000100000000100001000010000000000000000000100000000
hydrogen disulfide,66.14788,542.39,0.366,343.85,CC(C)CCCCCO,01000000000000000000000000010000010000010000000000000001000000000000000000000000100000000100001000010000000000000000000100000000
hydrogen fluoride,20.0063432,461.15,0.3822,292.67,CC(C)CCOC(=O)C(C)C,01000000001001000001000000010000010000010000000000000001000000000000010000000000100000000000000000010000000000000000000000000100
hydrogen iodide,127.91241,423.85,0.0381,237.55,CC(C)CCOC(C)=O,01000000001101000001000000010000010000010000000000000001000000000000000000000000100000000000000000010000000000000000000001000100
hydrogen peroxide,34.01468,730.15,0.3582,423.35,CC(C)CCOC=O,01000000001001000000000000010001010000000000000000000011000000000000000000000000100000000000000000010010000010000000000000000000
hydrogen selenide,80.97588,411.15,0.0542,231.15,CCCCCC(=O)OCCC(C)C,01000000001001000001000000111000010000110000000000000001000000000000000000000000100000000000000000010000001000000000000100000100
hydrogen sulfide,34.08188,373.53,0.0942,212.8,CC(C)CCOC(=O)CC(C)C,01000000001001000001000000010000010000010000000000000001000000000000000000000000100000000000000000010000001000000000000000000100
hydrogen telluride,129.61588,438.04,0.289,271.15,CCCCC(=O)OCCC(C)C,01000000001001000001000000111000010000110000000000000001000000000000000000000000100000000000000000010000001000000000000100000100
hydroxyacetonitrile,57.05196,664.0,0.801,467.0,CCC(=O)OCCC(C)C,01100000001001000001000000010000010000110000000000000001000000000000000000000000100000000000000000010000001000000000000000000100
hydroxylamine,33.02996,574.0,0.694,383.0,CC(C)CCC1CCCCC1,01001000000000000000000000010110010000000000010000000001000000001000000000000000100000000000000000010000000000000000000000010000
ibuprofen,206.28472,777.0,0.823,588.0,CC1=CC(=O)CC(C)(C)C1,00000000001000000000000000000010010010000000100000000000001100000000000000000001010010000000000000001000000000000010000000100000
indane,118.1784,684.9,0.309,451.12,CC1(C)CC(CC(C)(CN=C=O)C1)N=C=O,00000000001000000001000000010010011010010000000000011000000000000000000000000001100101000000000000000000000010000000000010110000