name,molweight,critical temperature (K),acentric factor,boiling point (K),SMILES,ECFP_Bits
2-pyrrolidone,85.10572,802.0,0.432,524.32,CC(C)(C)c1ccccc1N,00000000100000100001000000000000010100000000000001000000000100001000000000000000010000100000000000001000000000000010000000000000
2-sec-amylphenol,164.24744,751.0,0.569,407.65,CC(C)(C)c1ccc2ccccc2c1,00000000110000000000000000000000010000000000000000000000000100011000000000000000010000100000000000001000000100000010000000000000
2-sec-butyl-6-isopropylphenol,192.3012,762.67,0.621,484.92,CC(C)(C)c1ccccc1O,00000000100000000000000000000000010100010000000000000000000100001010000100000000010000100000000000001000000000000010000000000000
2-sec-butylaniline,149.23584,690.0,0.69,502.03,CCCCCCCCCCCCC(C)S,01000000000000000000000000110000010000100000000000000000000000000000000000000000110000000000000000010100000010000000000100000000
2-sec-butylnaphthalene,184.28104,818.49,0.508,585.41,CCCCCCCCCCCCC(C)O,01000000000000000100000000110000010000110000000000000000000000000000000000000000100000000000000000010000000000000000000100000000
2-sec-butylphenol,150.22056,720.28,0.51,501.15,CCCCCCCCCCCCC(C)=O,00000000001000100000000000101000010000110000000000000000000000000000000000000000100000000000000000000000000000000000000101000100
"2-tert-butyl-4,5-dimethylphenol",178.27432,755.67,0.59,531.65,CCCCCCCCCCCC=CC,00000000000000000100000000100000010000100000000000000010000000000000000000001000100000000000000000000000000000000000000100000000
"2-tert-butyl-4,6-dimethylphenol",178.27432,755.67,0.59,522.15,CCCCCCCCCCCCCCCCCSC,00000000001000000000001000100010010000100000000000000000000000000000000000000000100000000000000000000000000000000000100100000000
2-tert-butyl-4-ethylphenol,178.27432,755.67,0.59,523.15,CCCCCCCCCCCC(C)S,01000000000000000000000000110000010000100000000000000000000000000000000000000000110000000000000000010100000010000000000100000000
2-tert-butyl-4-methylphenol,164.24744,751.0,0.569,510.15,CCCCCCCCCCCC(C)O,01000000000000000100000000110000010000110000000000000000000000000000000000000000100000000000000000010000000000000000000100000000
2-tert-butyl-5-methylphenol,164.24744,751.0,0.569,486.71,CCCCCCCCCCCC(C)=O,00000000001000100000000000101000010000110000000000000000000000000000000000000000100000000000000000000000000000000000000101000100
2-tert-butyl-6-methylphenol,164.24744,751.0,0.569,503.15,CCCCCCCCCCC#CC,00000000000000000000000100100100011000100000000000000000000000000000000000000000100000000000000100000000000000000000000110000000
2-tert-butylaniline,149.23584,690.0,0.69,507.15,CCCCCCCCCC(C)S,01000000000000000000000000110000010000100000000000000000000000000000000000000000110000000000000000010100000010000000000100000000
2-tert-butylnaphthalene,184.28104,783.88,0.445,553.25,CCCCCCCCCC(C)O,01000000000000000100000000110000010000110000000000000000000000000000000000000000100000000000000000010000000000000000000100000000
2-tert-butylphenol,150.22056,725.38,0.444,497.23,CC(C)(C)C1=CC=CC=C1O,00000000100000000000000000000000010100010000000000000000000100001010000100000000010000100000000000001000000000000010000000000000
2-tetradecanethiol,230.4582,746.0,0.683,571.15,CCCCCCCCCC(C)=O,00000000001000100000000000101000010000110000000000000000000000000000000000000000100000000000000000000000000000000000000101000100
2-tetradecanol,214.3916,731.4,0.694,557.15,CCCCCCCCCCCc1ccc2ccccc2c1,00000000000000000000000000100000010000100000000000000000000000011000000000000000110000100011000000001000000100000000000100000000
2-tetradecanone,212.37572,712.65,0.759,551.15,CCCCCCCCC#CC,00000000000000000000000100100100011000100000000000000000000000000000000000000000100000000000000100000000000000000000000110000000
2-tetradecene,196.37632,716.27,0.55,536.15,CCCCCCCCCCCC=CC,00000000000000000100000000100000010000100000000000000010000000000000000000001000100000000000000000000000000000000000000100000000
2-tridecanethiol,216.43132,734.0,0.635,555.15,CCCCCCCCCCCC(C)S,01000000000000000000000000110000010000100000000000000000000000000000000000000000110000000000000000010100000010000000000100000000
2-tridecanol,200.36472,718.6,0.657,541.15,CCCCCCCCCCCC(C)O,01000000000000000100000000110000010000110000000000000000000000000000000000000000100000000000000000010000000000000000000100000000
2-tridecanone,198.34884,707.26,0.727,535.73,CCCCCCCCCCCC(=O)C,00000000001000100000000000101000010000110000000000000000000000000000000000000000100000000000000000000000000000000000000101000100
2-tridecyne,180.33356,701.82,0.539,518.15,Cc1cccc(c1)c2cccc(C)c2,00000000100000000000000000000001010000000000000000000000001000001000000000000000010000100000000000001000000100000000000000000000
2-undecanethiol,188.37756,706.0,0.563,520.45,FC(F)(F)C=C,00000000100000000000000000000000000000000000010000000010000000000000000000000100000000100000000000000000000001000010000000000001
2-undecanol,172.31096,689.7,0.604,508.15,CCC(C)C(C)(C)C(C)(C)CC,01000100100000000000000000010000010000110000000000000100000000010000000000000000100000000000000000000000000000000010000000000000
"2-undecanol, (±)",172.31096,696.85,0.596,501.15,CC(O)C(C)(C)C(C)(C)C,01000000100000000000000000010000010000010000000000000100000000000000000000000000000000000000000001010000000000000010000000000000
2-undecanone,170.29508,678.01,0.653,500.98,CCCC(C)(C)C(C)(C)CC,00000000100000000000000000101000010000110000000000000000000000010000000000000000100000000000000000000000000000000010000000000000
2-undecylnaphthalene,282.4692,852.71,0.787,669.15,CCC(C)(C)C(C)(C)CC,00000000100000000000000000000000010000110000000000000000000000010000000000000000100000000000000000000000000000000010000000000000
2-undecyne,152.2798,669.5,0.456,479.15,CCCCC(C)(C)C(C)(C)CC,00000000100000000000000000101000010000110000000000000000000000010000000000000000100000000000000000000000000000000010000100000000
"3',3""-dimethyldiphenylmethane",196.29204,788.71,0.521,567.15,CCC(C)(C)C(C)C(C)(C)CC,01000000100001000000000000010000010000110000100000000000000000000000000000000000100000000000000000000000000000000010000000000000
"3',4""-dimethyldiphenylmethane",196.29204,792.88,0.521,570.15,CCC(C)C(C)C(C)(C)CC,01000000100001000000000000010000010000110000100000000000000000000000000000000000100000000000000000000000000000000010000001000000
"3',4'-dimethyldiphenylmethane",196.29204,794.27,0.521,571.15,CCCC(C)C(C)C(C)(C)CC,01000000100001000000000000110000010000110000100000000000000000000000000000000000100000000000000000010000000000000010000001000000
"3',5'-dimethyldiphenylmethane",196.29204,788.71,0.521,567.15,CCC(C)CC(C)C(C)(C)CC,01000100100000000000000000010000010000111000100000000000000000000000000000000000100000010000000000000000000000000010000000000000
"3(4)-methylstyrene, isomers",118.1784,658.75,0.334,443.15,CCC(CC)C(CC)(CC)CC,01000000100000000000000000000000110000110000000000000000000000000000000000000000100000000000000000000000000000010010000000000000
"3,3'-dimethylbiphenyl",182.26516,796.1,0.512,559.15,CC(C)C(C)(C)CCO,01000000100000000000000000011000010000010000100000000000000000000000000000000000100000000100001000000001000000000010000000000000
"3,3,3-trifluoropropene",96.0520296,378.59,0.265,248.15,CC(C)C(C)(C)C=C,01000000100000000000000000010000010000000000000000000010000000000000000000001100000000100000000000000001000001000010000000000000
"3,3,4,4,5-pentamethylheptane",170.33844,668.43,0.375,479.15,CC(C)C(C)(C)C(C)O,01000000100100000000000000010000010000010000000000000000000000000000000000000000000000000000000001010001000000000010000000000000
"3,3,4,4-tetramethyl-2-pentanol",144.2572,620.44,0.651,453.15,CCCC(C)(CC)C(C)(C)CC,00000000100000000000000000101000010000110000000000000000000000010000000000000000100000000000001000000000000000000010000000000000
"3,3,4,4-tetramethylheptane",156.31156,644.46,0.361,457.15,CCC(C)(C)C(C)(CC)CC,00000000100000000000000000000000010000110000000000000000000000010000000000000000100000000000001000000000000000000010000000000000
"3,3,4,4-tetramethylhexane",142.28468,646.7,0.311,443.16,CCC(CC)C(C)C(C)(C)CC,01000000100001000000000000010000010000110000100000000000000000000000000000000000101000000000000000000000000000000010000000000000
"3,3,4,4-tetramethyloctane",170.33844,658.66,0.403,475.15,CCCC(C)C(C)(C)CC,01000100100000000000000000110000010000110000100000000000000000000000000000000000100000000000000000010000000000000010000000000000
"3,3,4,5,5-pentamethylheptane",170.33844,672.62,0.375,482.15,CCC(C)C(C)(C)CC,01000100100000000000000000010000010000110000100000000000000000000000000000000000100000000000000000000000000000000010000000000000
"3,3,4,5-tetramethylheptane",156.31156,636.04,0.391,454.15,CCCCCC(C)C(C)(C)CC,01000100100000000000000000110000010000110000100000000000000000000000000000000000100000000000000000010000000000000010000100000000
"3,3,4,5-tetramethyloctane",170.33844,649.16,0.432,471.15,CCCCC(C)C(C)(C)CC,01000100100000000000000000110000010000110000100000000000000000000000000000000000100000000000000000010000000000000010000100000000
"3,3,4,6-tetramethyloctane",170.33844,646.41,0.432,469.15,CC(O)C(C)(C)CC(C)(C)C,01000000100000000000000000010000010000010000100000000000000000000000000000000000100000000000000001010100000000000010001000000000
"3,3,4-triethylhexane",170.33844,656.25,0.461,479.15,CCC(C)(C)CC(C)(C)CC,00000000100000000000000000000000010000110000000000000000000000000000000000010000100000000000000000000000000000000010001000000000
"3,3,4-trimethyl-1-pentanol",130.23032,606.5,0.706,444.0,CCCC(C)(C)CC(C)(C)CC,00000000100000000000000000101000010000110000000000000000000000000000000000010000100000000000000000000000000000000010001000000000
"3,3,4-trimethyl-1-pentene",112.21504,561.62,0.268,378.15,CCC(C)C(C)CC(C)(C)CC,01000000100000000000000000010000010000110000000000000000010000000000000000010000100000000000000000000000000000000010000001000000
"3,3,4-trimethyl-2-pentanol",130.23032,602.05,0.674,438.15,CC(C)CC(C)(C)CCO,01000000100000000000000000011000010000010000000000000001010000000000000000010000100000000100001000000000000000000010000000000000
"3,3,4-trimethyl-4-ethylheptane",170.33844,662.82,0.403,478.15,CCC(C)C(CC)C(C)(C)CC,01000000100000000000000000010000010000110000100000000000000000000000000000000000100000000000000000000000000000000010000001000000
"3,3,4-trimethyl-4-ethylhexane",156.31156,652.92,0.361,463.15,CCC(C)(C)CC(C)(CC)CC,00000000100001000000000000000000010000110000000000000000000000000000000000010000100000000000000000000000000000000010001000000000
"3,3,4-trimethyl-5-ethylheptane",170.33844,650.54,0.432,472.15,CCC(C)CC(C)(C)CC,01000000100000000000000000010000010000110000000000000000010000000000000000010000100000010000000000000000000000000010000000000000
"3,3,4-trimethylheptane",142.28468,622.1,0.365,435.06,CCCCC(C)CC(C)(C)CC,01000000100000000000000000110000010000110000000000000000010000000000000000010000100000010000000000010000000000000010000100000000
"3,3,4-trimethylhexane",128.2578,602.3,0.328,413.62,CCCC(C)CC(C)(C)CC,01000000100000000000000000110000010000110000000000000000010000000000000000010000100000010000000000010000000000000010000000000000
"3,3,4-trimethylnonane",170.33844,650.77,0.461,475.15,CCC(C)(C)CCC(C)(C)CC,00000000100000000000000000001000010000110000000000000000000000000000000000010000100000000000000000000000000000000010000000000000
"3,3,4-trimethyloctane",156.31156,633.34,0.419,455.15,CCC(C)(C)C(O)CC(C)C,01000000100000000000000000010000010000111000100000000001001000000000000000000000100000000000000000010000000000000010000000000000
"3,3,5,5-tetramethyl-2-hexanol",158.28408,624.72,0.693,463.0,CCCC(C)CCC(C)(C)CC,01000000100000000000000000111000010000110000000000000000000000000000000000010000100000010000000000010000000000000010000000000000
"3,3,5,5-tetramethylheptane",156.31156,638.82,0.361,453.15,CCC(C)CCC(C)(C)CC,01000000100000000000000000011000010000110000000000000000000000000000000000010000100000010000000000010000000000000010000000000000
"3,3,5,5-tetramethyloctane",170.33844,651.73,0.403,470.15,CCC(C)CCCC(C)(C)CC,01000000100000000000000000011000010000110000000000000000000000000000000000010000100000010000000000010000000000000010000100000000
"3,3,5,6-tetramethyloctane",170.33844,642.27,0.432,466.15,CCC(Br)(Br)CC,00000000000000000000000000000000010000110000000000000000000000000000000000000010110000001000000000000000000000000010000000000000
"3,3,5-trimethyl-1-hexanol",144.2572,627.43,0.748,466.0,CC(=C)C(Cl)Cl,01000000000000000011000000000000010000010000000000000000000000000100000000000001000000100000000000000000000000000000000001000010
"3,3,5-trimethyl-4-ethylheptane",170.33844,647.78,0.432,470.15,CCC(Cl)(Cl)CC,00000000000001000001000000000000010100110000000000000000000000000000000000000000100000000000000000000000000000000010000000000000
"3,3,5-trimethyl-5-ethylheptane",170.33844,658.66,0.403,475.15,ClC(Cl)C=C,01000000000000000011000000000000000000000000000000000010100000000000000000000000001000100000000000000000000001000000000000000000
"3,3,5-trimethylheptane",142.28468,609.5,0.385,428.85,CCC(CC)(CC)C(C)C,01000000000000000000000000010000010000110000000000000000000000000000000000000000100000000000000000000001000000010010000000000000
"3,3,5-trimethylnonane",170.33844,634.33,0.461,463.15,CCC(CC)(CC)C(C)O,01000000000000000000000000010000010000110000000000000000000000000000000000000000100000000000000001010000000000010010000000000000
"3,3,5-trimethyloctane",156.31156,622.21,0.419,447.15,CCCCC(CC)(CC)CC,00000000000000000000000000101000010000110000000000000000000000000000000000000000100000000000000000000000100000000010000100000000
"3,3,6,6-tetramethyloctane",170.33844,641.61,0.403,462.85,CCCC(CC)(CC)CC,00000000000000000000000000101000010000110000000000000000000000000000000000000000100000000000000000000000100000000010000000000000
"3,3,6-trimethyl-4-heptanol",158.28408,607.56,0.757,455.0,CCCCCC(CC)(CC)CC,00000000000000000000000000101000010000110000000000000000000000000000000000000000100000000000000000000000100000000010000100000000
"3,3,6-trimethylnonane",170.33844,645.29,0.461,471.15,CCC(CC)(CC)CC,00000000000000000000000000000000010000110000000000000000000000000000000000000000100000000000000000000000100000000010000000000000
"3,3,6-trimethyloctane",156.31156,626.38,0.419,450.15,CCC(F)(F)CC,00000000100000000000000000000000010000110000010000000000000000000000000000000000100000000000000000000000000000000010000100000000
"3,3,7-trimethylnonane",170.33844,641.18,0.461,468.15,CCC(I)(I)CC,00000000000000000000010000000000010000110000000000000000000000000000000000000000100000000000000000000000000000000010100000000000
"3,3-dibromopentane",229.9424,656.98,0.414,440.15,CC(C)(C)C(O)CO,01000000100000000000000000000000010000010000000000000000001000000000000000000000100000000000001000110000000001000010000000000000
"3,3-dichloro-2-methyl-1-propene",124.99704,640.0,0.302,381.15,CC(C)(C)CCO,00000000100000000000000000001000010000010000000000000000000000000000000000000000100000000100001000000100000000000010000000000000
"3,3-dichloropentane",141.0398,608.66,0.291,405.15,CC(C)(C)C=C,00000000100000000000000000000000010000000000000000000010000000000000000000000100000000100000000000000010000001000010000000000000
"3,3-dichloropropene",110.97016,577.0,0.206,357.55,CC(C)(C)C#C,00000000100000000001000000000000011000000000000000000000000000000000000000000010000000000000000000000000000000000111000000000000
"3,3-diethyl-2-methylpentane",142.28468,639.9,0.346,442.86,CCCC(C)(C)CCO,00000000100000000000000000101000010000110000000000000000000000000000000000010000100000000100001000000000000000000010000000000000
"3,3-diethyl-2-pentanol",144.2572,620.7,0.748,461.0,CCCC(C)(C)C=C,00000000100000000000000000101000010000100000000000000010000000000000000000000100100000100000000000000000000001000010100000000000
"3,3-diethylheptane",156.31156,636.16,0.448,460.05,CCC(C)(C)CCO,00000000100000000000000000001000010000110000000000000000000000000000000000010000100000000100001000000000000000000010000000000000
"3,3-diethylhexane",142.28468,627.8,0.377,439.46,CCC(C)(C)C=C,00000000100000000000000000000000010000110000000000000010000000000000000000000100100000100000000000000000000001000010100000000000
"3,3-diethyloctane",170.33844,651.09,0.489,478.15,CCC(C)(C)C#C,00000000100000000001000000000000011000110000000000000000000000000000000000000010100000000000000000000000000000000011000000000010
"3,3-diethylpentane",128.2578,610.05,0.338,419.34,CC(O)C(C)(C)C,01000000100000000000000000010000010000010000000000000000000000000000000000000000000000000000000001010000000001000010000000000000
"3,3-difluoropentane",108.1312064,500.25,0.29,333.45,CCC(CC)(F)F,00000000100000000000000000000000010000110000010000000000000000000000000000000000100000000000000000000000000000000010000100000000
"3,3-diiodopentane",323.94334,752.99,0.271,496.85,CC(=O)C(C)(C)C,00000000101000100000000000000000010000010000000000000000000000100000000000000000000000000000000000000000000000000010000001000100
"3,3-dimethyl-1,2-butanediol",118.17596,634.56,1.105,478.65,CCC(CO)C(C)(C)C,01000000100000000000000000000000110000110000000000000000000000000000000000000000100000000000001000100000000001000010000000000000
"3,3-dimethyl-1-butanol",102.17656,587.6,0.609,416.15,CCC(=C)C(C)(C)C,00100000100000100001000000000000010000110000000000000000000000000000000000000000100000100000000000000000000000000010000000000010
"3,3-dimethyl-1-butene",84.16128,480.0,0.228,314.39,CCCC(C)(C)C(C)O,01000000100000000000000000111000010000110000100000000000000000000000000000000000100000000000000001010000000000000010000000000000
"3,3-dimethyl-1-butyne",82.1454,491.15,0.167,310.87,CCCC(C)(C)C(C)=O,00000000101000000000000000101000010000110000000000000000000000100000000000000000100000010000000000000000000000000010000001000100
"3,3-dimethyl-1-hexanol",130.23032,616.63,0.738,454.0,CCC(C)(C)C(C)O,01000000100000000000000000010000010000110000100000000000000000000000000000000000100000000000000001010000000000000010000000000000
"3,3-dimethyl-1-hexene",112.21504,555.62,0.297,377.15,CCC(C)(C)C(C)=O,00000000101000000000000000000000010000110000000000000000000000100000000000000000100000010000000000000000000000000010000001000100
"3,3-dimethyl-1-pentanol",116.20344,604.2,0.695,438.15,CSC(C)(C)C,00000000101000000000000000000000010000010001000000000000000000000000000000000000000000000000000000000000000000000010100000000000
"3,3-dimethyl-1-pentene",98.18816,527.74,0.253,350.63,CCC(C)(C)SC,00000000101000000000000000000000010001110000000000000000000000000000000000000000100000000000000000000000000000000010100000000000
"3,3-dimethyl-1-pentyne",96.17228,528.91,0.21,343.15,CCC(C)(C)C(CC)(CC)CC,00000000100000000000000000000000010000110000000000000000000000010000000000000000100000000000000000000000000000000010000000010000
"3,3-dimethyl-2-butanol",102.17656,566.4,0.496,393.15,CCCCCC#CC(C)(C)CC,00000000100000000000000100100100011000110000000000000000000000000000000000000000100000000000000010000000000000000010000100000010
"3,3-dimethyl-2-butanol, (±)",102.17656,581.8,0.582,393.55,CCCC(CC)C(C)(C)CC,01000000100000000000000000100000110000110000100000000000000000000000000000000000100000000000000000010000000000000010000000000000
"3,3-dimethyl-2-butanone",100.16068,564.0,0.327,379.45,CCCCC(CC)C(C)(C)CC,01000000100000000000000000100000110000110000100000000000000000000000000000000000100000000000000000010000000000000010000100000000
"3,3-dimethyl-2-ethyl-1-butanol",130.23032,609.23,0.706,446.0,CCCC(O)C(C)(C)CC,01000000100000000000000000100000010000110000100000000000001000000000000000000000100000000000000000010000000000000010000000000000
"3,3-dimethyl-2-ethyl-1-butene",112.21504,568.22,0.272,383.15,CCCC(C(C)C)C(C)(C)CC,01000000100000000000000000110000010000110000100000000000000000000000000000000000100000000000000000010000000001000010000000000000
"3,3-dimethyl-2-hexanol",130.23032,591.48,0.706,433.0,CCCCC#CC(C)(C)CC,00000000100000000000000100100100011000110000000000000000000000000000000000000000100000000000000010000000000000000010000100000010
"3,3-dimethyl-2-hexanone",128.21444,624.0,0.528,420.15,CCCC(CCC)C(C)(C)CC,01000000100000000000000000100000110000110000100000000000000000000000000000000000100000000000000000010000000000000010000000000000