name,molweight,critical temperature (K),acentric factor,boiling point (K),SMILES,ECFP_Bits
bismuth trichloride,315.33847,1179.0,0.304,720.15,CCCCOC(=O)CC(C)C,01000000001001000001000000110000010000110000000000000001000000000000000000000000100000000000000000000000001000000000000100000100
bisphenol a,228.29084,849.0,0.946,633.65,CCCCOC(C)=O,00000000001101000001000000100000010000110000000000000001000000000000000000000000100000000000000000000000000000000000000101000100
borazine,80.50086,521.2,0.092,326.15,CCCCOC(=O)C=C,00000000001001000001000000100000010000110000000001000011000000010000000000000000100000100000000000000000000001000000000100000100
boron tribromide,250.523,581.0,0.216,364.15,CCCCCCCCCCCCSCCCC,00000000000000000000000000100010010000100000000000000000010000000000000000000000100000000000000000000000000000000000100100000000
boron trichloride,117.1691,451.95,0.1505,285.65,CCCCOC=O,00000000001001000000000000100001010000100000000000000011000000000000000000000000100000000000000000000010000010000000000100000000
boron trifluoride,67.8062096,260.9,0.4337,173.35,CCCCCCC(=O)OCCCC,00000000001001000001000000101000010000110000000000000001000000000000000000000000100000000000000000000000001000000000000100000100
bromine,159.808,584.15,0.1189,331.9,CCCCCCCSCCCC,00000000000000000000000000100010010000100000000000000000010000000000000000000000100000000000000000000000000000000000100100000000
bromobenzene,157.0097,670.15,0.251,429.24,CCCCCCCCCCCCCCCCSCCCC,00000000000000000000000000100010010000100000000000000000010000000000000000000000100000000000000000000000000000000000100100000000
bromochlorodifluoromethane,165.3645064,426.15,0.187,269.14,CCCCCC(=O)OCCCC,00000000001001000001000000101000010000110000000000000001000000000000000000000000100000000000000000000000001000000000000100000100
bromochloromethane,129.38358,557.0,0.206,341.2,CCCCCCSCCCC,00000000000000000000000000100010010000100000000000000000010000000000000000000000100000000000000000000000000000000000100100000000
bromodichlorofluoromethane,181.8188032,512.9,0.187,269.14,CCCCOCC(C)C,01000000000001000000000000110000010000100000000000000001000000000000000010000000100000000000000000000000000000000000001100000000
bromodifluoromethane,130.9197464,411.98,0.205,257.67,CCCCOC(=O)C(C)C,01000000001001000001000000110000010000110000000000000001000000000000010000000000100000000000000000000000000000000000000100000100
bromoethane,108.9657,503.8,0.255,311.5,CCCCN=C=O,00000000001000001000000000100000011000100000000000000000000000000000000000000000100101000000000000000000000000000000000110010000
bromoform,252.73094,696.0,0.156,422.35,CCCC[N+]#[C-],00000000000000000000000000100000010000101000000000000000000000000000000001001000100000000010000000000001000000000000000100000000
bromotrichloromethane,198.2731,606.0,0.192,378.05,CCCCS,00000000000010000000000000100000010000100000000000010000000000000000000000000000100000000000000000000100000000000000000100000000
bromotrifluoroethylene,160.9212096,432.0,0.175,270.65,CCCCOC(=O)C(C)=C,00000000001001000001000000100000010000110000000000000001100000000000000001000000100000100000000000000000000000000000000101000110
bromotrifluoromethane,148.9102096,340.15,0.17,215.26,CCCCCCCCC(=O)OCCCC,00000000001001000001000000101000010000110000000000000001000000000000000000000000100000000000000000000000001000000000000100000100
"butadiene (1,3 butadiene)",54.09164,425.37,0.193,268.74,CCCCCCCCCSCCCC,00000000000000000000000000100010010000100000000000000000010000000000000000000000100000000000000000000000000000000000100100000000
butane,58.1234,425.12,0.2,272.65,CCCCCCCC(=O)OCCCC,00000000001001000001000000101000010000110000000000000001000000000000000000000000100000000000000000000000001000000000000100000100
butanol,74.1228,563.05,0.594,390.81,CCCCCCCCSCCCC,00000000000000000000000000100010010000100000000000000000010000000000000000000000100000000000000000000000000000000000100100000000
butyl 2-methylbutanoate,158.24072,614.21,0.771,452.15,CCCCCCCCCCCCCCCSCCCC,00000000000000000000000000100010010000100000000000000000010000000000000000000000100000000000000000000000000000000000100100000000
butyl 3-methylbutanoate,158.24072,614.21,0.771,456.91,CCCCCSCCCC,00000000000000000000000000100010010000100000000000000000010000000000000000000000100000000000000000000000000000000000100100000000
butyl acetate,116.16008,575.4,0.439,399.26,CCCCOC(=O)CC,00100000001001000001000000100000010000110000000000000001000000000000000000000000100000000000000000000000001000000000000100000100
butyl acrylate,128.17108,598.0,0.482,420.55,CCCCOCCC,00000000000001000000000000100000010000100000000000000001000000000000000010000000100000000000000000000000000000000000000100000000
butyl benzoate,178.23096,724.0,0.577,523.15,CCCCCCCCCCCCCCCCCC(=O)OCCCC,00000000001001000001000000101000010000110000000000000001000000000000000000000000100000000000000000000000001000000000000100000100
butyl butanoate,144.21384,616.0,0.482,438.15,CCCCCCCCCCCCCCSCCCC,00000000000000000000000000100010010000100000000000000000010000000000000000000000100000000000000000000000000000000000100100000000
butyl decyl sulfide,230.4582,762.23,0.7,569.0,CCCCCCCCCCCCCSCCCC,00000000000000000000000000100010010000100000000000000000010000000000000000000000100000000000000000000000000000000000100100000000
butyl dodecyl sulfide,258.51196,787.27,0.754,597.0,CCCCCCCCCCCSCCCC,00000000000000000000000000100010010000100000000000000000010000000000000000000000100000000000000000000000000000000000100100000000
butyl formate,102.1332,559.0,0.388,379.25,CCCCOC(=O)CCCC,00000000001001000001000000101000010000110000000000000001000000000000000000000000100000000000000000000000001000000000000100000100
butyl heptanoate,186.29448,652.0,0.639,499.35,CCCCOC=C,00000000000001000000000000100000010000100000000000000011000000000000000000000000100100100000000000000010000001000000000100000000
butyl heptyl sulfide,188.37756,717.91,0.592,520.0,CCCCN,00000000000000000001000000100000010000100000000010000000000000000000000000000000100001000000000000000000000000000000000100000000
butyl hexadecyl sulfide,314.61948,832.33,0.795,645.0,CCCCc1ccccc1,00000000000000000000000000100000010000100000000000000000000000001000000000000000110000100011000000001000000000000000000100000000
butyl hexanoate,172.2676,637.0,0.579,481.15,CCCCC1CCCCC1,00001000000000000000000000100110010000100000010000000000000000001000000000000000100000000000000000000000000000000000000100010000
butyl hexyl sulfide,174.35068,701.03,0.551,500.0,CCCCC1CCCC1,00001000000000000000000000100110010000100000010000000000000000001000000000000000100000000000000000000000000000000000000100010000
butyl isobutyl ether,130.23032,563.33,0.415,424.15,CCCC=O,00000000001000000100000000100000010000100000000000000010000000000000000000000000100000000000000000000000100010000000000000000000
butyl isobutyrate,144.21384,602.0,0.395,436.35,CCCC(O)=O,00000100001000000000000000101000010000110000000000000000000000000000000001000000100000000000000000000000000000000000000000000100
butyl isocyanate,99.1326,568.0,0.415,388.15,CCCC(=O)OC(=O)CCC,00100000001000000000000000101000010000110000000000000001000000000000000000000000100000000000000000000000001000000000000000000100
butyl isocyanide,83.1332,579.93,0.428,397.65,CCCC#N,00000000000000000000001000100100011000100000000000000000000000000100000000000000100000000000000000000000100000000000000000000000
butyl mercaptan,90.1894,570.1,0.271,371.61,CC1(C)C2CCC(C2)C1=C,00000000100010001000000000000010010110000000010000000000000010000000000000000000100000100000000000001000000000000000000000110000
butyl methacrylate,142.19796,619.0,0.447,436.15,CC1(C)C2CCC1(C)C(=O)C2,00000000001000001000000000000010011010000000010000000000001000010000000000000000000000000000000000001001000000000000000000111000
butyl nonanoate,214.34824,674.0,0.728,503.0,NC(Cl)=O,00000000001010000001000000100000000000010000000000000000000000000000000000000000000000000000000000000000000000000000000000000100
butyl nonyl sulfide,216.43132,748.42,0.667,553.0,O=C=O,01000000001000000000000000000000001000000000000000000000000000000000000000000000000000000000000000000000000000000000000010000000
butyl octanoate,200.32136,667.0,0.699,513.65,O=C=O,01000000001000000000000000000000001000000000000000000000000000000000000000000000000000000000000000000000000000000000000010000000
butyl octyl sulfide,202.40444,733.68,0.631,537.0,S=C=S,00000000000000000000000000000000001000000000000000000000000000000000000000000000000000000000000001000000000100000000000000010000
butyl pentadecyl sulfide,300.5926,821.75,0.794,635.0,S=C=S,00000000000000000000000000000000001000000000000000000000000000000000000000000000000000000000000001000000000100000000000000010000
butyl pentyl sulfide,160.3238,681.56,0.508,480.0,C=O,00000000001000000000000000000000000000000000000000000000000000000000000000001000000000100000000000000000000000000000000000000000
butyl propanoate,130.18696,594.6,0.464,418.26,C=O,00000000001000000000000000000000000000000000000000000000000000000000000000001000000000100000000000000000000000000000000000000000
butyl propyl ether,116.20344,558.21,0.307,391.25,BrC(Br)(Br)Br,00000000000000000000000000000000000000000000000001000000000000000000000000000000010000001000000000000000000000000010000000000000
butyl stearate,340.59016,764.0,1.025,623.15,ClC(Cl)(Cl)Cl,00000000000000000001000000000000000100000000000000000000000001000000000000000000000000000000000000000000000000000010000000000000
butyl tetradecyl sulfide,286.56572,810.53,0.787,625.0,FC(F)(F)F,00000000100001000000000000000000000000000000010000000000000000000000000000000000000000000000000000000000000000000010000000000000
butyl tridecyl sulfide,272.53884,798.63,0.774,611.0,IC(I)(I)I,00000100000000000000010000000000010000000000000000000000000000000000000000000000000000000000000000000000000000000010000000000000
butyl undecyl sulfide,244.48508,775.15,0.729,583.0,ClC(Cl)=O,00000000001010000001000000000000000000010000000000000000000000000000000000000000000000000000000000000000000000000000000000100100
butyl valerate,158.24072,629.0,0.596,459.65,FC(F)=O,00000000101000000000000000000000000000010000000000000000000000000010000000000000000000000000000000000000000000000000000000001100
butyl vinyl ether,100.16068,536.0,0.38,366.97,FC(F)=O,00000000101000000000000000000000000000010000000000000000000000000010000000000000000000000000000000000000000000000000000000001100
butylamine,73.13808,531.9,0.329,350.55,O=C=S,00000000001000000000000000000000001000000000001000000000000000000000000000000000000000000000000001000000000100000000000010000000
butylbenzene,134.22116,660.5,0.394,456.46,CCCCCCCCCCCCCCCCOC(=O)C(C)=C,00000000001001000001000000100000010000110000000000000001100000000000000001000000100000100000000000000000000000000000000101000110
butylcyclohexane,140.2688,667.0,0.274,454.13,[Cl],00000000000100000000000000000000000000000000000000000000000000000000000000000000000000000000000000000000000000000000000000000000
butyraldehyde,72.10692,537.2,0.277,347.95,CCCC=O,00000000001000000100000000100000010000100000000000000010000000000000000000000000100000000000000000000000100010000000000000000000
butyric acid,88.10632,615.7,0.681,436.42,FCl,00000000100000000001000000000000000000000000010000000000000000000000000000000000000000000000000000000000000000000000000000000000
camphene,136.23704,638.0,0.296,433.65,FCCl,00000000100000000001000000000000000000000000000000000000000000000000000000000000100001010000000000000010000000000000000000000000
camphor,152.23644,709.0,0.319,480.57,ClC(Cl)Cl,01000000000000000011000000000000000000000000000000000100000000000000000000000000000000000000000000000000000000000000000000000000
carbamic chloride,79.48572,517.0,0.445,334.65,COCCl,00000000000000000001000000000000010000000000000000000001000000000000000001000000100001001000000000000000000001000000000000000000
carbon dioxide,44.0098,304.19,0.2276,194.7,ClC(=C)C=C,00000000000010000001000000000000000000010000000000000010000000010100000000000000000000100000000000000000000001000000000000000010
carbon dioxide,44.0098,304.19,0.228,194.67,O[S](Cl)(=O)=O,00001000001000000001000000000000000000010000000000000000000000000000100100000000100000000000001000000000000000000000000000000000
carbon disulfide,76.143,552.0,0.1107,319.15,FC(F)=C(F)Cl,00000000100010010001000000000000000000010000000100000000000000000000000000000000000000000000000000000000000000000000000000001000
carbon disulfide,76.143,552.0,0.111,319.37,FC(F)(F)Cl,00000000100000000001000000000000000100000000010000000000000000000000000000000000000000000000000000000010000000000010000000000000
carbon monoxide,28.0104,132.92,0.0663,81.7,CC(C)CCC[C@@H](C)[C@H]1CC[C@H]2[C@@H]3CC=C4C[C@@H](O)CC[C@]4(C)[C@H]3CC[C@]12C,01000001101000000000000000010110010010010000010000000001000000000000010000000010110000100000100000011001010000100000010110110000
carbon monoxide,28.0104,132.92,0.066,81.7,[Cr].ClOCl,00000000000000000001000000000000000000000000000001000001000000000000000000000000000000000000000000000001000000000000000000001000
carbon tetrabromide,331.627,724.91,0.501,462.65,C(Br)(Br)(Br)Br,00000000000000000000000000000000000000000000000001000000000000000000000000000000010000001000000000000000000000000010000000000000
carbon tetrachloride,153.8218,556.35,0.193,349.79,C1CC\C=C/C=C\C1,00001000000000000000000000000010000000000000000000000000000000000000000000000000010000000000001000000000100000000000000000010000
carbon tetrafluoride,88.0046128,227.5,0.179,145.09,C\1C\C=C/CC\C=C1,00000000000000000000000000000010000000000000000000000000000000000000000000000000010000000000000000000000100000000000000000010000
carbon tetraiodide,519.62888,961.09,0.181,591.61,C(I)(I)(I)I,00000100000000000000010000000000010000000000000000000000000000000000000000000000000000000000000000000000000000000010000000000000
carbonyl chloride,98.9158,455.0,0.201,280.71,CC\C=C/c1ccccc1,00000000000000000000000000000000010000100000001000000010000000001001000000001000110000100000000000001000000000000100000000000000
carbonyl fluoride,66.0072064,297.0,0.283,190.05,C(=O)(F)F,00000000101000000000000000000000000000010000000000000000000000000010000000000000000000000000000000000000000000000000000000001100
carbonyl fluoride,66.0072064,297.0,0.283,188.58,C[C@@H]1C[C@H](C)CC(C)(C)C1,00000000000010000000000000000110010010010000000000000000000000000000000000000001000000000000000000000000000000000000000000111000
carbonyl sulfide,60.0764,378.8,0.097,223.0,CC(C)(C)\C=C/C(C)(C)C,00000000100000000000000000000000010000000000000000000010000000000000000000000000000000000000000000000010000001000010000000000000
cetyl methacrylate,310.52052,793.0,0.976,641.0,C[C@@H]1CCC[C@@H]1C,00001000000000000000000000000110010000000000010000000000000000000001000000000000000000000000000000000000000000000000000000010000
chlorine,70.9054,417.15,0.069,239.12,ClCl,10000000000000000001000000000000000000000000000000000000000000000000000000000000000000000000000000000000000000000000000000000000
chlorine dioxide,67.4515,465.0,0.3564,284.05,ClC\C=C/Cl,00000010000000000001000000000000000000000000001000000010000000000000000000001000100001000000000000000000000000000000000000000001
chlorine heptoxide,182.9012,565.78,0.2,355.15,C[C@H]1CCC[C@@H](C)C1,00001000000010000000000000000110010000000000010000000000000000000000000000000000000000000000000000000000000000000000000000011000
chlorine monofluoride,54.4511032,282.32,0.276,172.05,C[C@H]1CC[C@@H](C)C1,00000000000010000000000000000110010000000000010000000000000000000000000000000000000000000000000000000000000000000000000000011000
chlorine monoxide,86.9048,444.68,0.303,275.35,C\C=C/C=C,00000000000000001000000000000000010000000000000010000010000000000000000000001000100000100000000000000000000001000000000000000000
chlorine pentafluoride,130.444716,416.0,0.316,260.05,C[C@@H]1CC[C@H](C)CC1,00000000000000000000000000000110010000000000010000000000000000000000000000000000000000000000000000000000000000000000000000011000
chlorine trifluoride,92.4479096,368.4,0.173,284.9,CC\C=C/Br,00000000000000000000010000100000010000100000001000000010000000000000000000001000100000001000000000000000000000000000000000000000
chloroacetaldehyde,78.49792,555.0,0.33,358.0,CCCCCCCC\C=C/Br,00000000000000000100010000100000010000100000000000000010000000000000000000001000100000001000000000000000000000000000000100000000
chloroacetic acid,94.49732,686.0,0.551,462.5,CCCCCCCCCC\C=C/Br,00000000000000000100010000100000010000100000000000000010000000000000000000001000100000001000000000000000000000000000000100000000
chloroacetyl chloride,112.94268,581.0,0.354,379.15,CCCCCCCCCCCCCCCCCC\C=C/Br,00000000000000000100010000100000010000100000000000000010000000000000000000001000100000001000000000000000000000000000000100000000
chlorobenzene,112.5584,632.35,0.25,404.87,CCCCCCCCCCCCCCC\C=C/Br,00000000000000000100010000100000010000100000000000000010000000000000000000001000100000001000000000000000000000000000000100000000
chlorodifluoromethane,86.4684464,369.3,0.219,232.32,CCCCC\C=C/Br,00000000000000000100010000100000010000100000000000000010000000000000000000001000100000001000000000000000000000000000000100000000
chlorodimethylsilane,94.61578,472.0,0.253,308.65,CCCCCCCCCCCCCC\C=C/Br,00000000000000000100010000100000010000100000000000000010000000000000000000001000100000001000000000000000000000000000000100000000
chlorofluoromethane,68.4779832,427.0,0.211,264.06,CCCC\C=C/Br,00000000000000000100010000100000010000100000000000000010000000000000000000001000100000001000000000000000000000000000000100000000
chloroform,119.37704,536.4,0.222,334.33,CCCCCCCCCCCCCCCCC\C=C/Br,00000000000000000100010000100000010000100000000000000010000000000000000000001000100000001000000000000000000000000000000100000000
chloromethyl methyl ether,80.5138,521.0,0.27,332.65,CCCCCCC\C=C/Br,00000000000000000100010000100000010000100000000000000010000000000000000000001000100000001000000000000000000000000000000100000000
chloropentafluoroethane,154.466716,353.15,0.251,234.04,CCCCCCCCCCCCCCCC\C=C/Br,00000000000000000100010000100000010000100000000000000010000000000000000000001000100000001000000000000000000000000000000100000000
chloroprene,88.5364,525.0,0.197,332.55,CCCCCC\C=C/Br,00000000000000000100010000100000010000100000000000000010000000000000000000001000100000001000000000000000000000000000000100000000
chlorosulfonic acid,116.52484,700.0,0.301,427.0,CCCCCCCCCCCCC\C=C/Br,00000000000000000100010000100000010000100000000000000010000000000000000000001000100000001000000000000000000000000000000100000000
chlorotrifluoroethylene,116.4699096,379.15,0.244,244.8,CCC\C=C/Br,00000000000000000100010000100000010000100000000000000010000000000000000000001000100000001000000000000000000000000000000000000000
chlorotrifluoromethane,104.4589096,302.0,0.172,191.74,C\C=C/Br,00000000000000000000010000100000010000000000000000000010000000000000000000001000100000001000000000000000000000000000000000000000
cholesterol,386.66164,959.0,0.948,771.0,CCCCCCCCCCC\C=C/Br,00000000000000000100010000100000010000100000000000000010000000000000000000001000100000001000000000000000000000000000000100000000
chrysene,228.29328,979.0,0.603,714.15,CC(C)\C=C/Br,01000000000000000000010000110000011000000000000000000010000000000000000000000000000000001000000000000000000000000000000000000000
"cis,cis-1,3,5-trimethylcyclohexane",126.24192,607.86,0.274,411.66,CC\C=C/Cl,00000010000000000001000000000000010000100000001000000010000000000000000000001000100000000000000000000000000000000000000000000001
"cis,cis-1,3-cyclooctadiene",108.18328,645.0,0.286,327.15,CCCCCCCC\C=C/Cl,00000010000000000101000000100000010000100000000000000010000000000000000000001000100000000000000000000000000000000000000100000001
"cis,cis-1,5-cyclooctadiene",108.18328,645.0,0.286,424.15,CCCCCCCCCC\C=C/Cl,00000010000000000101000000100000010000100000000000000010000000000000000000001000100000000000000000000000000000000000000100000001
"cis,trans-1,3,5-trimethylcyclohexane",126.24192,602.2,0.367,413.7,CCCCCCCCCCCCCCCCCC\C=C/Cl,00000010000000000101000000100000010000100000000000000010000000000000000000001000100000000000000000000000000000000000000100000001