name,molweight,critical temperature (K),acentric factor,boiling point (K),SMILES,ECFP_Bits
1-methyl-7-isopropylnaphthalene,184.28104,773.88,0.507,554.15,CC[C@H]1CC[C@@H](C)CC1,00000000000000000000000000000110010000100000011000000000000000000000000000000000100000000000000000000000000000000000000000011000
"1-methyl-[1,2,3,4-tetrahydronaphthalene]",146.23216,722.13,0.379,493.74,CC[C@@H]1CCCC[C@H]1C,00001000000000000000000000000110010000100000011000000000000000000001000000000000100000000000000000100000000000000000000000010000
1-methyl-cis-2-ethylcyclohexane,126.24192,632.03,0.305,429.25,CC[C@@H]1CCC[C@H]1C,00001000000000000000000000000110010000100000011000000000000000000001000000000000100000000000000000100000000000000000000000010000
1-methyl-cis-2-ethylcyclopentane,112.21504,597.34,0.29,401.2,CC[C@@H]1C[C@H]1C,00000000000010000000000000000110010000100000001000000000000000000001000000000000100000000000000000100000000000000000000000010000
1-methyl-cis-2-ethylcyclopropane,84.16128,518.53,0.26,340.16,CC(C)[C@@H]1CCC[C@H]1C,01001000000000000000000000010110010000000000010000000000000000000001000000000000010000000000000000000000000000000000000000010100
1-methyl-cis-2-isopropylcyclopentane,126.24192,619.02,0.305,421.15,CCC[C@@H]1CCC[C@H]1C,00001000000000000000000000100110010000100000010000000000000000001001000000000000100000000000000000100000000000000000000000010000
1-methyl-cis-2-propylcyclopentane,126.24192,620.88,0.334,425.73,CC[C@H]1CCC[C@H](C)C1,00001000000010000000000000000110010000100000011000000000000000000000000000000000100000000000000000000000000000000000000000011000
1-methyl-cis-3-ethylcyclohexane,126.24192,620.1,0.305,421.15,CC[C@H]1CC[C@H](C)C1,00000000000010000000000000000110010000100000011000000000000000000000000000000000100000000000000000000000000000000000000000011000
1-methyl-cis-3-ethylcyclopentane,112.21504,586.99,0.29,394.25,C[C@H]1CC[C@@H](C1)C(C)C,01000000000010000000000000010110010000000000010000000000001000000000000000000000000000000000000000000000000000000000000000011100
1-methyl-cis-3-isopropylcyclopentane,126.24192,610.2,0.305,415.15,CCC[C@H]1CC[C@H](C)C1,00000000000010000000000000100110010000100000010000000000000000001000000000000000100000000000000000000000000000000000000000011000
1-methyl-cis-3-propylcyclopentane,126.24192,614.2,0.334,421.15,CC[C@@H]1CC[C@@H](C)CC1,00000000000000000000000000000110010000100000011000000000000000000000000000000000100000000000000000000000000000000000000000011000
1-methyl-cis-4-ethylcyclohexane,126.24192,624.52,0.305,424.15,CCC1CCC(CC1)C,00000000000000000000000000000110010000100000011000000000000000000000000000000000100000000000000000000000000000000000000000011000
1-methyl-cis-decahydronaphthalene,152.2798,752.51,0.331,516.15,CC1(CC=CC=C1)c2ccccc2,00010000000000000001000000000010010010000000100000000000000001001000000000000000010000100000001000001000100000000000000000100000
1-methyl-trans-2-ethylcyclohexane,126.24192,625.55,0.305,424.85,CCCC(C)OC(C)=O,01000000001100000000000000110000110000110000000000000001000000000000010000000000100000000000000000010000000000000000000001000100
1-methyl-trans-2-ethylcyclopentane,112.21504,587.14,0.29,394.35,CCCC(C)OC(=O)CCC,01000000001000000000000000111000110000110000000000000001000000000000010000000000100000000000000000010000001000000000000000000100
1-methyl-trans-2-ethylcyclopropane,84.16128,505.8,0.26,331.81,CCCC(C)OC=O,01000000001000000000000000110001110000100000000000000011000000000000000000000000101000000000000000010000000010000000000000000000
1-methyl-trans-2-isopropylcyclopentane,126.24192,608.73,0.305,414.15,CCCC(C)OC(=O)CC,01100000001000000000000000110000110000110000000000000001000000000000010000000000100000000000000000010000001000000000000000000100
1-methyl-trans-2-propylcyclopentane,126.24192,611.82,0.334,419.52,CCCC(C)N,01000000000000000011000000110000010000100000000000000001000000000000000000000000100000000000000000010000000000000000000000000000
1-methyl-trans-3-ethylcyclohexane,126.24192,624.52,0.305,424.15,CC1(O)CCCCC1,00101000001000000000000000000010010010010000001000000000000000000000000000000000000000000000000000000000000000000000000000100000
1-methyl-trans-3-ethylcyclopentane,112.21504,586.99,0.29,394.25,CC1=CCCCC1,00001000000000000000000000000010010000000000000000000000001100000000000000100000010000000000000000001000000000000000010000010000
1-methyl-trans-3-isopropylcyclopentane,126.24192,610.2,0.305,415.15,CC1=CCCC1,00001000000000000000000000000010010000000000000000000000001100000000000000100000010000000000000000001000000000000000010000010000
1-methyl-trans-3-propylcyclopentane,126.24192,614.2,0.334,421.15,CC1C=Cc2ccccc12,00010000000000000000000000000100010100001000000000000000000100001000000000000000010000100000000000001000100000000000000000010000
1-methyl-trans-4-ethylcyclohexane,126.24192,620.1,0.305,421.15,Cc1nccc2ccccc12,00000000000000000000000000000000010000000000100000000000001000011000000000100100010000100000100000001000000000000000000000100000
1-methyl-trans-decahydronaphthalene,152.2798,740.84,0.331,508.15,Cc1cccc2ccccc12,00000000000000000000000000000000010000000000000000000000001000011000000000000100010000100000000000001000000000010000000000000000
1-methylbutyl acetate,130.18696,579.0,0.459,406.15,CCC(C)(C)C[N+]([O-])=O,00000000101000000000000000001000010000110001001000000000000000000000001000010000100000000000000000000000000000000110000000000000
1-methylbutyl butanoate,158.24072,610.0,0.845,455.15,CC(C)C(C)C[N+]([O-])=O,01000000001000010000000000010000010000000001001000000000000000000000001000010000100000000000000000000000000001000100000001000000
1-methylbutyl formate,116.16008,574.0,0.401,393.76,CCC(CC)C[N+]([O-])=O,01000000101010010000000000000000010000100001001000000000000000000000001000010000100000000000000000000000000000000100000000000000
1-methylbutyl propanoate,144.21384,597.0,0.691,440.22,CCCC(C)C[N+]([O-])=O,01000000001000010000000000110000010000100001001000000000000000000000001000010000100000010000000000010000000000000100000000000000
1-methylbutylamine,87.16496,534.9,0.419,364.85,CC(C)C[N+]([O-])=O,01000000001000010000000000010000010000000001001000000001000000000000001000010000100000000000000000000000000000000100000000000000
1-methylcyclohexanol,114.18756,686.0,0.221,441.15,CC(C)(C)CC[N+]([O-])=O,00000000101000000000000000001000010000000001001000000000000000000000001000110000100000000000000000000100000000000110000000000000
1-methylcyclohexene,96.17228,590.94,0.241,383.45,CCC(C)CC[N+]([O-])=O,01000000101000000000000000010000010000100001001000000000000000000000001000110000100000010000000000010000000000000100000000000000
1-methylcyclopentene,82.1454,542.0,0.232,348.95,CC(C)CCC[N+]([O-])=O,01000000001000000000000000010000010000000001001000000001000000000000001000110000100000000000000000010000000000000100000100000000
1-methylindene,130.1894,703.0,0.335,471.65,CCCC[N+]([O-])=O,00000000001000000000000000100000010000100001001000000000000000000000001000110000100000000000000000000000000000000100000100000000
1-methylisoquinoline,143.1882,778.59,0.428,521.15,CCCCCCCCCC[N+]([O-])=O,00000000001000000000000000100000010000100001001000000000000000000000001000110000100000000000000000000000000000000100000100000000
1-methylnaphthalene,142.2004,772.0,0.342,517.83,CCCCCCCCCCCC[N+]([O-])=O,00000000001000000000000000100000010000100001001000000000000000000000001000110000100000000000000000000000000000000100000100000000
"1-methylpentyl butanoate, (S)",172.2676,657.2,0.474,473.73,CCCCCCCCCCCCCCCCCCCC[N+]([O-])=O,00000000001000000000000000100000010000100001001000000000000000000000001000110000100000000000000000000000000000000100000100000000
"1-nitro-2,2-dimethylbutane",131.17476,638.11,0.458,442.15,CCCCCCCCCCCCCCCCC[N+]([O-])=O,00000000001000000000000000100000010000100001001000000000000000000000001000110000100000000000000000000000000000000100000100000000
"1-nitro-2,3-dimethylbutane",131.17476,643.56,0.491,449.15,CCCCCCC[N+]([O-])=O,00000000001000000000000000100000010000100001001000000000000000000000001000110000100000000000000000000000000000000100000100000000
1-nitro-2-ethylbutane,131.17476,633.09,0.523,445.0,CCCCCCCCCCCCCCCC[N+]([O-])=O,00000000001000000000000000100000010000100001001000000000000000000000001000110000100000000000000000000000000000000100000100000000
1-nitro-2-methylpentane,131.17476,634.51,0.523,446.0,CCCCCC[N+]([O-])=O,00000000001000000000000000100000010000100001001000000000000000000000001000110000100000000000000000000000000000000100000100000000
1-nitro-2-methylpropane,103.121,609.0,0.415,414.87,CCCCCCCCCCCCCCCCCCC[N+]([O-])=O,00000000001000000000000000100000010000100001001000000000000000000000001000110000100000000000000000000000000000000100000100000000
"1-nitro-3,3-dimethylbutane",131.17476,642.23,0.458,445.0,CCCCCCCCC[N+]([O-])=O,00000000001000000000000000100000010000100001001000000000000000000000001000110000100000000000000000000000000000000100000100000000
1-nitro-3-methylpentane,131.17476,634.51,0.523,446.0,CCCCCCCCCCCCCCCCCC[N+]([O-])=O,00000000001000000000000000100000010000100001001000000000000000000000001000110000100000000000000000000000000000000100000100000000
1-nitro-4-methyl pentane,131.17476,634.51,0.523,446.0,CCCCCCCC[N+]([O-])=O,00000000001000000000000000100000010000100001001000000000000000000000001000110000100000000000000000000000000000000100000100000000
1-nitrobutane,103.121,623.0,0.455,425.92,CCCCCCCCCCCCCCC[N+]([O-])=O,00000000001000000000000000100000010000100001001000000000000000000000001000110000100000000000000000000000000000000100000100000000
1-nitrodecane,187.28228,716.97,0.725,539.15,CCC[N+]([O-])=O,00000000001000000000000000100000010000100001001000000000000000000000001000110000100000000000000000000000000000000100000000000000
1-nitrododecane,215.33604,740.64,0.796,570.15,CCCCCCCCCCCCCC[N+]([O-])=O,00000000001000000000000000100000010000100001001000000000000000000000001000110000100000000000000000000000000000000100000100000000
1-nitroeicosane,327.55108,821.1,0.871,667.15,CCCCCCCCCCCCC[N+]([O-])=O,00000000001000000000000000100000010000100001001000000000000000000000001000110000100000000000000000000000000000000100000100000000
1-nitroheptadecane,285.47044,792.11,0.893,635.15,CCCCCCCCCCC[N+]([O-])=O,00000000001000000000000000100000010000100001001000000000000000000000001000110000100000000000000000000000000000000100000100000000
1-nitroheptane,145.20164,675.3,0.599,486.15,CCCCCCCCCCCCCCCCCCCS,00000000000010000000000000100000010000100000000000010000000000000000000000000000100000000000000000000100000000000000000100000000
1-nitrohexadecane,271.44356,782.0,0.886,623.15,CCCCCCCCCCCCCCCCCCCO,00000000000000000000000000100000010000110000000000000000000000000000000000000000100000000100001000000000000000000000000100000000
1-nitrohexane,131.17476,659.32,0.555,466.65,CCCCCCCCCCCCCCCCCC=C,00000000000000000100000000100000010000100000100000000010000000000000000000000000100000100000000000000000000001000000000100000000
1-nitrononadecane,313.5242,810.4,0.886,656.15,CCCCCCCCCCCCCCCCCC#C,00000000000000000001000000100100011000100000000000000000000000000000000000000010100000000000000000000000000000000000000100000000
1-nitrononane,173.2554,703.7,0.685,522.15,CCCCCCCCC=O,00000000001000000100000000100000010000100000000000000010000000000000000000000000100000000000000000000000100010000000000100000000
1-nitrooctadecane,299.49732,801.56,0.893,646.15,CCCCCCCCCO,00000000000000000000000000100000010000110000000000000000000000000000000000000000100000000100001000000000000000000000000100000000
1-nitrooctane,159.22852,690.75,0.643,505.15,CCCCCCC(O)C=C,01000000000000000000000000101000010000110000000000000010100000000000000000000000100000100000000000010000000001000000000100000000
1-nitropentadecane,257.41668,772.46,0.872,611.15,CCCCCCCC=C,00000000000000000100000000100000010000100000100000000010000000000000000000000000100000100000000000000000000001000000000100000000
1-nitropropane,89.09412,605.0,0.413,404.33,CCCCCCCCCC1CCCc2ccccc12,00011000000000000000000000100010010000100000010000000000000000001000000000110000110010100000000000001000000000000000000100010000
1-nitrotetradecane,243.3898,762.2,0.851,598.15,CCCCCCCCCC1=CCCC1,00001000000000000000000000100010010000100000000000000000000000000000000000100000110000000001000000001000000000000000010100010000
1-nitrotridecane,229.36292,751.18,0.826,584.15,CCCCCCCCCc1cccc2ccccc12,00000000000000000000000000100000010000100000000000000000000000011000010000000100110000100001000000001000000000000000000100000000
1-nitroundecane,201.30916,729.26,0.762,555.15,CCCCCCCC#C,00000000000000000001000000100100011000100000000000000000000000000000000000000010100000000000000000000000000000000000000100000000
1-nonadecanethiol,300.5926,805.29,0.807,645.16,CCCCCCCCCCCCCCCCCCS,00000000000010000000000000100000010000100000000000010000000000000000000000000000100000000000000000000100000000000000000100000000
1-nonadecanol,284.526,799.0,0.908,634.6,CCCCCCCCCCCCCCCCCCO,00000000000000000000000000100000010000110000000000000000000000000000000000000000100000000100001000000000000000000000000100000000
1-nonadecene,266.51072,760.0,0.841,602.17,CCCCCCCCCCCCCCCCC=C,00000000000000000100000000100000010000100000100000000010000000000000000000000000100000100000000000000000000001000000000100000000
1-nonadecyne,264.49484,758.94,0.735,600.16,CCCCCCCCCCCCCCCCC#C,00000000000000000001000000100100011000100000000000000000000000000000000000000010100000000000000000000000000000000000000100000000
1-nonanal,142.24132,658.0,0.512,468.15,CCCCCCCC=O,00000000001000000100000000100000010000100000000000000010000000000000000000000000100000000000000000000000100010000000000100000000
1-nonanol,144.2572,670.7,0.6,486.25,CCCCCCCCO,00000000000000000000000000100000010000110000000000000000000000000000000000000000100000000100001000000000000000000000000100000000
1-nonen-3-ol,142.24132,629.65,0.541,466.65,CCCCCCC=C,00000000000000000100000000100000010000100000100000000010000000000000000000000000100000100000000000000000000001000000000100000000
1-nonene,126.24192,594.0,0.41,420.02,CCCCCCCCC1CCCc2ccccc12,00011000000000000000000000100010010000100000010000000000000000001000000000110000110010100000000000001000000000000000000100010000
"1-nonyl-[1,2,3,4-tetrahydronaphthalene]",258.4472,805.45,0.702,621.15,CCCCCCCCC1=CCCC1,00001000000000000000000000100010010000100000000000000000000000000000000000100000110000000001000000001000000000000000010100010000
1-nonylcyclopentene,194.36044,707.91,0.573,527.15,CCCCCCCCc1cccc2ccccc12,00000000000000000000000000100000010000100000000000000000000000011000010000000100110000100001000000001000000000000000000100000000
1-nonylnaphthalene,254.41544,849.0,0.617,639.0,CCCCCCC#C,00000000000000000001000000100100011000100000000000000000000000000000000000000010100000000000000000000000000000000000000100000000
1-nonyne,124.22604,598.05,0.471,423.85,CCCCCCCCCCCCCCCCCCCCCCCC#C,00000000000000000001000000100100011000100000000000000000000000000000000000000010100000000000000000000000000000000000000100000000
1-octadecanethiol,286.56572,795.36,0.798,633.16,CCCCCCCCCCCCCCCS,00000000000010000000000000100000010000100000000000010000000000000000000000000000100000000000000000000100000000000000000100000000
1-octadecanol,270.49912,790.0,0.889,624.0,CCCCCCCCCCCCCCCO,00000000000000000000000000100000010000110000000000000000000000000000000000000000100000000100001000000000000000000000000100000000
1-octadecene,252.48384,748.0,0.794,587.97,CCCCCCCCCCCCCC=C,00000000000000000100000000100000010000100000100000000010000000000000000000000000100000100000000000000000000001000000000100000000
1-octadecyne,250.46796,747.33,0.715,586.16,CCCCCCCCCCCCCCCC1=CCCC1,00001000000000000000000000100010010000100000000000000000000000000000000000100000110000000001000000001000000000000000010100010000
1-octanal,128.21444,638.9,0.464,447.15,CCCCCCCCCCCCCC#C,00000000000000000001000000100100011000100000000000000000000000000000000000000010100000000000000000000000000000000000000100000000
1-octanol,130.23032,652.5,0.583,468.35,CCCC=C,00000000000000000100000000100000010000100000100000000010000000000000000000000000100000100000000000000000000001000000000000000000
1-octene,112.21504,567.0,0.392,394.44,CC#CC=C,00000000000000000000000000000000011000000000000000000010000000000000000000000000010000110000000100000000000001000000000010000000
"1-octyl-[1,2,3,4-tetrahydronaphthalene]",244.42032,797.31,0.669,608.15,C=CCC#C,00000000000000000001000000000000001000100000100000000010000000000000000000000010100000100000001000000000000001000000000000000000
1-octylcyclopentene,180.33356,694.89,0.532,510.15,CCCCCC1CCCc2ccccc12,00011000000000000000000000100010010000100000010000000000000000001000000000110000110010100000000000001000000000000000000100010000
1-octylnaphthalene,240.38856,821.26,0.699,625.15,CCCCCC1=CCCC1,00001000000000000000000000100010010000100000000000000000000000000000000000100000110000000001000000001000000000000000010100010000
1-octyne,110.19916,585.0,0.323,399.35,CCCCCc1cccc2ccccc12,00000000000000000000000000100000010000100000000000000000000000011000010000000100110000100001000000001000000000000000000100000000
1-pentacosyne,348.65612,825.22,0.725,672.15,CCCC#C,00000000000000000001000000100100011000100000000000000000000000000000000000000010100000000000000000000000000000000000000000000000
1-pentadecanethiol,244.48508,764.77,0.737,593.86,CC(C)(C)Cc1ccccc1,00000000100000000000000000000000010000000000000000000000000000001000000000000000110000100010000000001100000000000010000010000000
1-pentadecanol,228.41848,759.0,0.78,583.4,CCC(C)Cc1ccccc1,01000000100000000000000000010000010000100000000000000000000000001000000000000001110000110010000000001000000000000000000000000000
1-pentadecene,210.4032,708.0,0.684,541.61,CC(O)Cc1ccccc1,01000000000000000100000000010000010000010000000000000000000000001000000000000001110000100010000000011000000000000000000000000000
1-pentadecylcyclopentene,278.52172,767.17,0.748,608.15,CC(C)CCc1ccccc1,01000000000000000000000000010000010000000000000000000001000000001000000000000000110000100011000000011000000000000000000000000000
1-pentadecyne,208.38732,711.41,0.628,541.16,CC(O)c1ccccc1,01001000000000000000000000010000010000010000000000000000000000001000000000000000010001100000000000011000000000000000000000000000
1-pentene,70.1344,464.8,0.236,303.11,CCCCCCCCCCCCCCCCc1ccccc1,00000000000000000000000000100000010000100000000000000000000000001000000000000000110000100011000000001000000000000000000100000000
1-pentene-3-yne,66.10264,520.0,0.252,332.4,c1ccc(cc1)C2C=Cc3ccccc23,00010000000000000000000000000000000100001000000000000000000100001000000000000000010000100000000000101000000000000000000000010001
1-pentene-4-yne,66.10264,503.0,0.179,315.65,c1ccc(cc1)c2cccc3ccccc23,00000000100000000000000000000000000000000000000000000000000000011000000000000100010000100000000010001000000000000000000000000000
"1-pentyl-[1,2,3,4-tetrahydronaphthalene]",202.33968,767.6,0.554,562.78,CCCCCCCCCCCCCCc1ccccc1,00000000000000000000000000100000010000100000000000000000000000001000000000000000110000100011000000001000000000000000000100000000
1-pentylcyclopentene,138.25292,647.47,0.403,452.15,OCCN1CCNCC1,00000000000000000000000000001010000000010000000001000000000000000000000010000000100000000110001000000000000000000000000001000001
1-pentylnaphthalene,198.30792,803.0,0.535,579.15,CC=Cc1ccccc1,00000000000000000000000000000000010000000000000000000010000000001001000000001000110000100000000000001000000000000100000000000000
1-pentyne,68.11852,481.2,0.29,313.33,CCCOCC(C)O,01000000000001000100000000110000010000110000000000000001000000000000000010000000100000000000000000010000000000000000001000000000
"1-phenyl-2,2-dimethylpropane",148.24804,667.65,0.351,459.15,CCCC1CCCc2ccccc12,00011000000000000000000000100010010000100000010000000000000000001000000000110000110010100000000000001000000000000000000000010000
1-phenyl-2-methylbutane,148.24804,673.65,0.413,470.15,CCCC1=CCCC1,00001000000000000000000000100010010000100000000000000000000000000000000000100000110000000001000000001000000000000000010000010000