name,molweight,critical temperature (K),acentric factor,boiling point (K),SMILES,ECFP_Bits
3-methyl-trans-2-hexene,98.18816,546.42,0.307,368.33,CC(C)CCN,01000000000000000001000000010000010000000000000010000001000000000000000000000000100001000000000000010000000000000000000000000000
3-methyl-trans-2-pentene,84.16128,517.0,0.263,343.59,CC/C(=C/C)/C,00100000000000000000000000000000010000110000000000100010000000000000000000001000100000000000000000000000000000000000000001000000
3-methyl-trans-3-heptene,112.21504,572.89,0.351,394.15,CC1CCCC=C1,00001000000000000000000000000110010000000000010000000000010100000000000000000000010000000000000000000000100000000000000000010000
3-methyl-trans-3-hexene,98.18816,543.99,0.307,366.69,CC/C=C(\C)/CC,00100000000000000000000000000000010000110000001000100010000000000000000000000000100000000000000100000000000000000000000001000000
"3-methylamino-1,2-propanediol",105.13688,715.0,1.046,520.15,CC1CCCC(N)C1,00001000000010000001000000000110010000001000010000000000000000000000000000000000000000000000000000000000000000000000000000011000
3-methylbenzaldehyde,120.15092,691.0,0.433,472.15,CC1CCC=C1,00000000000000000000000000000110010000000000010000000000010100000000000000000000010000000000000000000000100000000000000000010000
3-methylbenzenemethanol,122.1668,681.0,0.751,490.15,CCCCCCCC(C)CC,01000000100000000000000000110000010000100000000000000000000000000000000000000000100000010000000000010000000000000000000100000000
3-methylbiphenyl,168.23828,801.0,0.418,545.85,Cc1cccc(Cc2ccccc2)c1,00000000000000000000001000000001010000000000000000000000001000001000000000000000110000100010000000001000000100000000000000000000
3-methylbutanal,86.1338,544.62,0.388,365.75,CCCCCCCCCC(C)CC,01000000100000000000000000110000010000100000000000000000000000000000000000000000100000010000000000010000000000000000000100000000
3-methylbutanenitrile,83.1332,593.3,0.397,403.65,Cc1cocc1,10000000000000001001000000000001010000010000000000000000001000000000000000000000010000100000000000001000000000000000000000000000
3-methylbutanoic acid,102.1332,629.09,0.682,449.68,CCCCCCCCCCCCCCC(C)CC,01000000100000000000000000110000010000100000000000000000000000000000000000000000100000010000000000010000000000000000000100000000
3-methylbutyl butanoate,158.24072,619.0,0.694,452.15,CCCCC(C)CC,01000000100000000000000000110000010000100000000000000000000000000000000000000000100000010000000000010000000000000000000100000000
3-methylbutylamine,87.16496,544.9,0.416,370.15,CCCCCCCCCCCCCC(C)CC,01000000100000000000000000110000010000100000000000000000000000000000000000000000100000010000000000010000000000000000000100000000
3-methylcyclohexanol; (cis+trans),114.18756,635.0,0.685,440.25,CCCC(C)CC=O,01000100001000000000000000110000010000100000000000000010000000000000000000000000100000010000000000010000100010000000000000000000
3-methylcyclohexene,96.17228,578.88,0.241,375.62,CCCC(C)CC,01000000100000000000000000110000010000100000000000000000000000000000000000000000100000010000000000010000000000000000000000000000
"3-methylcyclohexene, (±)",96.17228,583.04,0.241,377.15,CCC[C@@H](C)CC,01000000100000000000000000110000010000100000000000000000000000000000000000000000100000010000000000010000000000000000000000000000
3-methylcyclohexylamine,113.20284,622.0,0.386,423.15,CCCC(C)CC(O)=O,01000100001000000000000000110000010000110000000000000000000000000000000001000000100000010000000000010000000000000000000000000100
3-methylcyclopentene,82.1454,526.0,0.23,338.05,Cc1cc2ccccc2cn1,00000000000000000000000000000000010000000000100000000000001000011001000000000000010000100000000000001000000100000000000000100001
3-methyldecane,156.31156,632.86,0.507,463.15,CCCCCCCCCCCCCCCCC(C)CC,01000000100000000000000000110000010000100000000000000000000000000000000000000000100000010000000000010000000000000000000100000000
3-methyldiphenylmethane,182.26516,782.37,0.478,552.39,CCCCCCC(C)CC,01000000100000000000000000110000010000100000000000000000000000000000000000000000100000010000000000010000000000000000000100000000
3-methyldodecane,184.36532,669.09,0.586,503.45,CCCCCCC(C)CC(O)=O,01000100001000000000000000110000010000110000000000000000000000000000000001000000100000010000000000010000000000000000000100000100
3-methylfuran,82.10204,528.6,0.289,338.65,CCCCCCCCCCCCCCCC(C)CC,01000000100000000000000000110000010000100000000000000000000000000000000000000000100000010000000000010000000000000000000100000000
3-methylheptadecane,254.49972,740.59,0.727,586.15,CCCCCC(C)CC,01000000100000000000000000110000010000100000000000000000000000000000000000000000100000010000000000010000000000000000000100000000
3-methylheptane,114.23092,563.67,0.372,392.08,CCCCCC(C)CC(O)=O,01000100001000000000000000110000010000110000000000000000000000000000000001000000100000010000000000010000000000000000000100000100
3-methylhexadecane,240.47284,727.5,0.708,571.15,CCCCCCCCCCCCC(C)CC,01000000100000000000000000110000010000100000000000000000000000000000000000000000100000010000000000010000000000000000000100000000
3-methylhexanal,114.18756,593.0,0.464,416.0,CCC(C)CC=O,01000100101000000000000000010000010000100000000000000010000000000000000000000000100000010000000000000000100010000000000000000000
3-methylhexane,100.20404,535.2,0.32,365.0,CCC(C)CC,01000000100000000000000000010000010000100000000000000000000000000000000000000000100000010000000000000000000000000000000000000000
"3-methylhexane, (S)-",100.20404,532.41,0.301,365.15,CCC(C)CC#N,01000000110000000000001000010000011000100000000000000000000000000100000000000000100000010000000000000000100000000000000000000000
3-methylhexanoic acid,130.18696,680.0,0.717,486.15,CCCC(C)CC(=O)O,01000100001000000000000000110000010000110000000000000000000000000000000001000000100000010000000000010000000000000000000000000100
3-methylisoquinoline,143.1882,778.59,0.428,522.15,Cc1cccnc1,00000000000000000000000000000001010000000000000000000000001000001001000000100000010000100000000000001000000000000000000000100001
3-methylnonadecane,282.55348,764.46,0.748,613.15,Cc1c[nH]cc1,00000000000000000000000000000001010000000000000000000000001000000000000000000000010000110010000000101000000000000000000001000000
3-methylnonane,142.28468,613.0,0.465,440.95,Cc1cnc2ccccc2c1,00000000000000000000000000000001010000000000100000000000001000011000000001000000010000100000000000001000000100000000000000100001
3-methylnonanoic acid,172.2676,713.0,0.877,473.73,CCCCCCCCCCCC(C)CC,01000000100000000000000000110000010000100000000000000000000000000000000000000000100000010000000000010000000000000000000100000000
3-methyloctadecane,268.5266,752.9,0.741,600.15,CC1CCOC1,00010000000100001000000000000110010000000000010000000010000000000000000000000000000000000000000000000000000000000000000000011000
3-methyloctane,128.2578,590.15,0.412,417.38,CC1CCCSC1,00001000000000000000010000000110010110000000010000000000000000000000000000000001000000000000000000000000000000000000000000011000
3-methyloctanoic acid,158.24072,703.0,0.831,456.91,CC1CCSC1,00000000000000000000010000000110010110000000010000000000000000000000000000000001000000000000000000000000000000000000000000011000
3-methylpentadecane,226.44596,713.56,0.683,555.15,Cc1cscc1,00000000000000100000000000000001010100001000000000000000001000000000000000000000010000100000000000001000010000000000000000000000
3-methylpentanal,100.16068,576.34,0.433,395.15,CCCCCCCCCCC(C)CC,01000000100000000000000000110000010000100000000000000000000000000000000000000000100000010000000000010000000000000000000100000000
3-methylpentane,86.17716,504.43,0.274,336.42,CCCCCCCCC(C)CC,01000000100000000000000000110000010000100000000000000000000000000000000000000000100000010000000000010000000000000000000100000000
3-methylpentanenitrile,97.16008,614.09,0.442,426.15,CCC(C(C)C)[N+]([O-])=O,01000000101000000000000000010000010000100001000000000000000000000000001000011000100000000000000000000000000001000100000000000000
"3-methylpentanoic acid, (±)",116.16008,661.0,0.652,470.65,CCC(C)(CC)[N+]([O-])=O,00000100101000000000000000000000010000110001000000000000000000000000001000010000100000000000000000000100000000000110000000000000
3-methylpyridine,93.12832,645.0,0.298,417.29,[O-][N+](=O)c1cccc(c1)C(F)(F)F,00000000111000000000000000000000000000000101010000000000000000001000001000010000010000100000000000001000000100000110000000100000
3-methylpyrrole,81.11732,610.0,0.213,416.05,CCCC(CC)[N+]([O-])=O,01000000101000000000000000100000010000100001000000000000000000000000001001010000100000000000000000010000000000000100000000000000
3-methylquinoline,143.1882,770.99,0.452,525.45,CCCCCCCCCCCCCCCC#CCC,00000000000000000000000100100100011100100000000000000000000000000000000000000000100000000000000000000000000000000000000100000000
3-methyltetradecane,212.41908,700.41,0.654,539.45,CCCCCCC(O)CC,01000000100000000000000000100000010000110000000000000000000000000000000000000000100000000000000000010000000000000000001100000000
3-methyltetrahydrofuran,86.1338,639.01,0.264,411.15,CC1CCOC1,00010000000100001000000000000110010000000000010000000010000000000000000000000000000000000000000000000000000000000000000000011000
3-methylthiacyclohexane,116.22728,668.34,0.244,431.19,CCCCCCC(=O)CC,00100000001000000000000010101000010000110000000000000000000000000000000000000000100000000000000000000000000000000000000100000100
3-methylthiacyclopentane,102.2004,646.2,0.229,411.49,CCCCCC#CCC,00000000000000000000000100100100011100100000000000000000000000000000000000000000100000000000000000000000000000000000000100000000
3-methylthiophene,98.16864,613.0,0.24,388.55,CC1=CSC=C1,00000000000000100000000000000001010100001000000000000000001000000000000000000000010000100000000000001000010000000000000000000000
3-methyltridecane,198.3922,685.13,0.622,521.85,CCCCCCCCCCCCCCCC(=O)CC,00100000001000000000000010101000010000110000000000000000000000000000000000000000100000000000000000000000000000000000000100000100
3-methylundecane,170.33844,655.0,0.552,483.95,CCCCCCCCCCCCCCC#CCC,00000000000000000000000100100100011100100000000000000000000000000000000000000000100000000000000000000000000000000000000100000000
3-nitro-2-methylpentane,131.17476,634.74,0.491,443.0,CCCCCC(O)CC,01000000100000000000000000100000010000110000000000000000000000000000000000000000100000000000000000010000000000000000001100000000
3-nitro-3-methylpentane,131.17476,639.34,0.458,443.0,CCCCCC(=O)CC,00100000001000000000000010101000010000110000000000000000000000000000000000000000100000000000000000000000000000000000000100000100
3-nitrobenzotrifluoride,191.1095096,667.0,0.536,475.93,CCCCC#CCC,00000000000000000000000100100100011100100000000000000000000000000000000000000000100000000000000000000000000000000000000100000000
3-nitrohexane,131.17476,639.0,0.523,449.15,CCCCCCCCCCCCC(O)CC,01000000100000000000000000100000010000110000000000000000000000000000000000000000100000000000000000010000000000000000001100000000
3-nonadecyne,264.49484,760.66,0.728,600.15,CCCCCCCCCCCC#CCC,00000000000000000000000100100100011100100000000000000000000000000000000000000000100000000000000000000000000000000000000100000000
3-nonanol,144.2572,620.4,0.846,467.85,CCC(N)CC,01000000100000000011000000000000010000100000000000000000000000000000000000000000101000000000000000000000000000000000000000000000
"3-nonanol, (±)",144.2572,614.43,0.768,468.15,CCC(S)CC,01000000100000000000000000000000010000100000000000000000000000000000000000000000100000000000000000000100000010000000000000001000
3-nonanone,142.24132,629.65,0.541,463.15,CCC(CC)c1ccccc1,01000000100000000000000000000000010000100000000000000000000000001000000000000000110001100000000000001000100000000000000000000000
3-nonyne,124.22604,623.36,0.368,430.25,CCCOCC=C,00000000000001000000000000100000010100100000100000000011000000000000000010000000100000100000000000000000000001000000000000000000
"3-octadecanol, (±)",270.49912,775.45,0.847,604.43,CCCC(CCC)CCO,01000000000010000000000000100000010000110000000000000000000000000000000000000000100000000100001000010000000000000000000000000000
3-octadecanone,268.48324,758.47,0.838,607.48,CCCc1cccc(O)c1,00000000000000000000000000100000010000110000000000000000000000001010000000000000110000100011000000001000010100000000000000000000
3-octadecyne,250.46796,750.52,0.707,587.15,CCCc1cscc1,00000000000000100000000000100000010100101000000000000000000000000000000000000000110000100011000000001000010000000000000000000000
3-octanol,130.23032,601.72,0.806,447.85,N#Cc1cccnc1,00000000000000000000001000000000001000000000000000000000000000001001000000100000010000100000000000001010100000001000000000100001
3-octanone,128.21444,624.0,0.528,440.65,OC(=O)c1cccnc1,00000100001000000000000000000000000000010000000000000000000000001001000010100000010000100000000000001000010000000000000000100101
3-octyne,110.19916,600.66,0.324,406.29,CCC(C)c1cccc(O)c1,01000000100000000000000000010000010000110000000000000000000000001010000000000000110001100000000000001000010100000000001000000000
3-pentadecanol,228.41848,732.87,0.871,661.15,CC(C)(C)c1cccc(O)c1,00000000110000000000000000000000010000010000000000000000000100001010000000000000010000100000000000001000010100000010000000000000
3-pentadecyne,208.38732,717.83,0.616,544.15,CCCCCCCCCCCC(O)CC,01000000100000000000000000100000010000110000000000000000000000000000000000000000100000000000000000010000000000000000001100000000
3-pentanamine,87.16496,525.16,0.379,362.15,CCCCCCCCCCCC(=O)CC,00100000001000000000000010101000010000110000000000000000000000000000000000000000100000000000000000000000000000000000000100000100
3-pentanethiol,104.21628,580.0,0.317,387.05,CCCCCCCCCCC#CCC,00000000000000000000000100100100011100100000000000000000000000000000000000000000100000000000000000000000000000000000000100000000
3-phenylpentane,148.24804,665.05,0.413,464.15,CCCCCCCCCCC(O)CC,01000000100000000000000000100000010000110000000000000000000000000000000000000000100000000000000000010000000000000000001100000000
3-propoxy-1-propene,100.16068,536.0,0.38,364.15,CCCCCCCCCCC(=O)CC,00100000001000000000000010101000010000110000000000000000000000000000000000000000100000000000000000000000000000000000000100000100
3-propyl-1-hexanol,144.2572,612.65,0.846,462.0,CCCCCCCCCC#CCC,00000000000000000000000100100100011100100000000000000000000000000000000000000000100000000000000000000000000000000000000100000000
3-propylphenol,136.19368,730.33,0.496,502.15,CCCCCCCC[C@H](O)CC,01000000100000000000000000100000010000110000000000000000000000000000000000000000100000000000000000010000000000000000001100000000
3-propylthiophene,126.2224,652.99,0.342,434.15,CCCCCCCCC(=O)CC,00100000001000000000000010101000010000110000000000000000000000000000000000000000100000000000000000000000000000000000000100000100
3-pyridinecarbonitrile,104.11124,703.0,0.422,474.15,CCCCCCCC=CCC,00000000000000000100000000100000010000100000001000000010000000000000000000001000100000000000000000000000000000000000000100000000
3-pyridinecarboxylic acid,123.11124,760.0,0.596,526.0,CCCCCCCC#CCC,00000000000000000000000100100100011100100000000000000000000000000000000000000000100000000000000000000000000000000000000100000000
3-sec-butylphenol,150.22056,733.0,0.51,510.0,CCC(C)C1=CC(=CC=C1)O,01000000100000000000000000010000010000110000000000000000000000001010000000000000110001100000000000001000010100000000001000000000
3-tert-butylphenol,150.22056,748.61,0.444,513.15,Cc1ccc(cc1)c2ccc(C)cc2,00000000100000000000000000000001010000000000000000000000001000000000000000000000010000100000000000001000000000000000000000000000
3-tetradecanol,214.3916,736.2,0.686,552.35,[O-][N+](=O)c1ccc(Nc2ccc(cc2)[N+]([O-])=O)cc1,10000000001000000000000000000000000000000001000000000000000000010000001000010000010000100000000000001000000100000100000000100000
3-tetradecanone,212.37572,712.65,0.759,512.95,CCCCCCCCCCCC(=O)CC,00100000001000000000000010101000010000110000000000000000000000000000000000000000100000000000000000000000000000000000000100000100
3-tetradecyne,194.36044,705.58,0.579,528.15,CCCC(C)(C)C(C)(C)CCC,00000000100000000000000000101000010000100000000000000000000000010000000000000000100000000000000000000000000000000010000000000000
3-tridecanol,200.36472,724.8,0.642,531.15,CCCCC(C)C(C)(C)CCC,01000100100000000000000000111000010000100000100000000000000000000000000000000000100000000000000000010000000000000010000100000000
3-tridecanone,198.34884,707.26,0.727,538.47,CCCC(C)C(C)(C)CCC,01000100100000000000000000111000010000100000100000000000000000000000000000000000100000000000000000010000000000000010000000000000
3-tridecyne,180.33356,692.34,0.539,511.15,CCCC(C)CC(C)(C)CCC,01000000100000000000000000111000010000100000000000000000010000000000000000010000100000010000000000010000000000000010000000000000
"3-undecanol, (R)-",172.31096,696.85,0.596,502.15,CCCC(Cl)(Cl)CCC,00000000000001000001000000101000010100100000000000000000000000000000000000000000100000000000000000000000000000000010000000000000
3-undecanone,170.29508,678.01,0.653,500.15,CCCC(CC)(CC)CCC,00000000000000000000000000101000010000110000000000000000000000000000000000000000100000000000000000000000100000000010000000000000
3-undecene,154.29568,637.84,0.504,466.65,CCCCC(CC)(CC)CCC,00000000000000000000000000101000010000110000000000000000000000000000000000000000100000000000000000000000100000000010000100000000
3-undecyne,152.2798,661.12,0.456,473.15,CCC(C)(C)CCCO,00000000100000000000000000001000010000110000000000000000000000000000000000010000100000000100001000000000000000000010000100000000
"4',4""-dimethyldiphenylmethane",196.29204,797.05,0.521,573.15,CCC(C)(C)CC=C,00000000100000000000000000000000010000110000100000100010000000000000000000010000100000100000000000000000000001000010000000000000
"4,4'-dimethylbiphenyl",182.26516,817.7,0.443,566.15,CC(C)(C)CCCO,00000000100000000000000000001000010000010000000000000000000000000000000000000000100000000100001000000100000000000010000100000000
"4,4'-dinitrodiphenylamine",259.22128,926.0,1.025,709.0,CC(C)(C)CC=C,00000000100000000000000000000000010000000000100000100010000000000000000000000000100000100000000000000100000001000010000000000000
"4,4'-dinitrotriphenylamine",335.31904,946.0,1.09,743.0,CC(C)(C)CC#C,00000000100000000001000000000000011000100000000000000000000000000000000000000010100000000000000000000100000000000010000000000000
"4,4,5,5-tetramethyloctane",170.33844,655.89,0.403,473.15,CCC(C)(C)CC(C)O,01000000100000000100000000010000010000110000000000000000010000000000000000010000100000000000000000010000000000000010000000000000
"4,4,5-trimethylnonane",170.33844,645.29,0.461,471.15,CC(C)(C)CC(=C)CC(C)(C)C,00000000100000000000000000000000010001010000000000000000000000000000000000000000100010100000000000000100000000000010000000000010
"4,4,5-trimethyloctane",156.31156,630.56,0.419,453.15,CC(O)CC(C)(C)C,01000000100000000100000000010000010000010000000000000000010000000000000000000000100000000000000000010100000000000010000000000000
"4,4,6-trimethylnonane",170.33844,635.7,0.461,464.15,CC(=O)CC(C)(C)C,00000000101000100000000000000000010001010000000000000000000000000000000000000000100000000000000000000100000000000010000001000100
"4,4-dichloroheptane",169.09356,654.02,0.442,454.15,CC#CC(C)(C)C,00000000100000000000000000000000011000000000000000000000000000000000000000000000000000000000000110000000000000000110000010000000
"4,4-diethylheptane",156.31156,627.03,0.448,453.45,CSCC(C)(C)C,00000000101000000000001000000000010000000000000000000000000000000000000000000000100000000000000000000100000000000010100000000000
"4,4-diethyloctane",170.33844,644.29,0.489,473.15,CCC(C(C)O)C(C)(C)C,01000000100000000000000000010100010000110000000000000000000000000000000000000000100000000000000000010000000001000010000000000000
"4,4-dimethyl-1-hexanol",130.23032,617.99,0.738,455.0,CCCC(C)(C)C(CC)CC,01000000100000000000000000101000110000100000100000000000000000000000000000000000100000000000000000000000000000000010000000000000
"4,4-dimethyl-1-hexene",112.21504,560.33,0.297,380.35,CCCCC(C)(C)C(CC)CC,01000000100000000000000000101000110000100000100000000000000000000000000000000000100000000000000000000000000000000010000100000000
"4,4-dimethyl-1-pentanol",116.20344,597.3,0.695,433.15,CCC(O)C(C)(C)CC,01000000100000000000000000000000010000110000100000000000001000000000000000000000100000000000000000010000000000000010000000000000