name,molweight,critical temperature (K),acentric factor,boiling point (K),SMILES,ECFP_Bits
cis-(1-butenyl)benzene,132.20528,678.55,0.366,462.15,CCCCCCCCCCCCCCC\C=C/Cl,00000010000000000101000000100000010000100000000000000010000000000000000000001000100000000000000000000000000000000000000100000001
cis-(1-methyl-1-propenyl)benzene,132.20528,654.0,0.361,447.15,CCCCC\C=C/Cl,00000010000000000101000000100000010000100000000000000010000000000000000000001000100000000000000000000000000000000000000100000001
"cis-1,1,3,5-tetramethylcyclohexane",140.2688,667.0,0.274,425.65,CCCCCCCCCCCCCC\C=C/Cl,00000010000000000101000000100000010000100000000000000010000000000000000000001000100000000000000000000000000000000000000100000001
"cis-1,2-di-tert-butylethene",140.2688,616.98,0.457,439.96,CCCC\C=C/Cl,00000010000000000101000000100000010000100000000000000010000000000000000000001000100000000000000000000000000000000000000100000001
"cis-1,2-dichloroethylene",96.94328,544.0,0.135,333.65,CCCCCCCCCCCCCCCCC\C=C/Cl,00000010000000000101000000100000010000100000000000000010000000000000000000001000100000000000000000000000000000000000000100000001
"cis-1,2-dichloropropene",110.97016,577.0,0.206,366.15,CCCCCCC\C=C/Cl,00000010000000000101000000100000010000100000000000000010000000000000000000001000100000000000000000000000000000000000000100000001
"cis-1,2-difluoroethene",64.0346864,394.67,0.21,245.15,CCCCCCCCCCCCCCCC\C=C/Cl,00000010000000000101000000100000010000100000000000000010000000000000000000001000100000000000000000000000000000000000000100000001
"cis-1,2-dimethylcyclohexane",112.21504,606.15,0.232,402.94,CCCCCC\C=C/Cl,00000010000000000101000000100000010000100000000000000010000000000000000000001000100000000000000000000000000000000000000100000001
"cis-1,2-dimethylcyclopentane",98.18816,565.15,0.266,372.68,CCCCCCCCCCCCC\C=C/Cl,00000010000000000101000000100000010000100000000000000010000000000000000000001000100000000000000000000000000000000000000100000001
"cis-1,3-dichloro-2-butene",124.99704,640.0,0.302,403.15,CCC\C=C/Cl,00000010000000000101000000100000010000100000000000000010000000000000000000001000100000000000000000000000000000000000000000000001
"cis-1,3-dichloropropene",110.97016,577.0,0.206,377.45,C\C=C/Cl,00000010000000000001000000000000010000000000000000000010000000000000000000001000100000000000000000000000000000000000000000000001
"cis-1,3-dimethylcyclohexane",112.21504,591.15,0.237,393.24,CCCCCCCCCCCC\C=C/Cl,00000010000000000101000000100000010000100000000000000010000000000000000000001000100000000000000000000000000000000000000100000001
"cis-1,3-dimethylcyclopentane",98.18816,551.0,0.274,363.92,CCCCCCCCCCC\C=C/Cl,00000010000000000101000000100000010000100000000000000010000000000000000000001000100000000000000000000000000000000000000100000001
"cis-1,3-pentadiene",68.11852,499.0,0.147,317.22,CCCCCCCCC\C=C/Cl,00000010000000000101000000100000010000100000000000000010000000000000000000001000100000000000000000000000000000000000000100000001
"cis-1,4-dimethylcyclohexane",112.21504,598.15,0.231,397.47,CC1CCC(CC1)C,00000000000000000000000000000110010000000000010000000000000000000000000000000000000000000000000000000000000000000000000000011000
cis-1-bromo-1-butene,135.00358,554.15,0.312,359.3,CC(C)\C=C/Cl,01000010000000000001000000010000011000000000000000000010000000000000000000000000000000001000000000000000000000000000000000000001
cis-1-bromo-1-decene,219.16486,683.71,0.579,498.15,CC\C=C/F,00000000100000000000000000000000010000100000001000000010000000000000000000001000100000000000000000000000000000000100000000000000
cis-1-bromo-1-dodecene,247.21862,712.56,0.661,534.15,CCCCCCCC\C=C/F,00000000100000000100000000100000010000100000000000000010000000000000000000001000100000000000000000000000000000000100000100000000
cis-1-bromo-1-eicosene,359.43366,805.01,0.839,648.15,CCCCCCCCCC\C=C/F,00000000100000000100000000100000010000100000000000000010000000000000000000001000100000000000000000000000000000000100000100000000
cis-1-bromo-1-heptadecene,317.35302,772.65,0.812,610.15,CCCCCCCCCCCCCCCCCC\C=C/F,00000000100000000100000000100000010000100000000000000010000000000000000000001000100000000000000000000000000000000100000100000000
cis-1-bromo-1-heptene,177.08422,630.55,0.447,436.15,CCCCCCCCCCCCCCC\C=C/F,00000000100000000100000000100000010000100000000000000010000000000000000000001000100000000000000000000000000000000100000100000000
cis-1-bromo-1-hexadecene,303.32614,761.27,0.79,596.15,CCCCC\C=C/F,00000000100000000100000000100000010000100000000000000010000000000000000000001000100000000000000000000000000000000100000100000000
cis-1-bromo-1-hexene,163.05734,609.39,0.402,413.15,CCCCCCCCCCCCCC\C=C/F,00000000100000000100000000100000010000100000000000000010000000000000000000001000100000000000000000000000000000000100000100000000
cis-1-bromo-1-nonadecene,345.40678,794.49,0.836,636.15,CCCC\C=C/F,00000000100000000100000000100000010000100000000000000010000000000000000000001000100000000000000000000000000000000100000100000000
cis-1-bromo-1-nonene,205.13798,666.86,0.536,478.15,CCCCCCCCCCCCCCCCC\C=C/F,00000000100000000100000000100000010000100000000000000010000000000000000000001000100000000000000000000000000000000100000100000000
cis-1-bromo-1-octadecene,331.3799,783.3,0.827,623.15,CCCCCCC\C=C/F,00000000100000000100000000100000010000100000000000000010000000000000000000001000100000000000000000000000000000000100000100000000
cis-1-bromo-1-octene,191.1111,643.03,0.492,453.15,CCCCCCCCCCCCCCCC\C=C/F,00000000100000000100000000100000010000100000000000000010000000000000000000001000100000000000000000000000000000000100000100000000
cis-1-bromo-1-pentadecene,289.29926,750.39,0.764,582.15,CCCCCC\C=C/F,00000000100000000100000000100000010000100000000000000010000000000000000000001000100000000000000000000000000000000100000100000000
cis-1-bromo-1-pentene,149.03046,584.97,0.357,388.15,CCCCCCCCCCCCC\C=C/F,00000000100000000100000000100000010000100000000000000010000000000000000000001000100000000000000000000000000000000100000100000000
cis-1-bromo-1-propene,120.9767,523.23,0.268,330.95,CCC\C=C/F,00000000100000000100000000100000010000100000000000000010000000000000000000001000100000000000000000000000000000000100000000000000
cis-1-bromo-1-tetradecene,275.27238,738.68,0.733,567.15,C\C=C/F,00000000100000000000000000000000010000000000000000000010000000000000000000001000100000000000000000000000000000000100000000000000
cis-1-bromo-1-tridecene,261.2455,726.09,0.699,551.15,CCCCCCCCCCCC\C=C/F,00000000100000000100000000100000010000100000000000000010000000000000000000001000100000000000000000000000000000000100000100000000
cis-1-bromo-1-undecene,233.19174,699.36,0.621,517.15,CCCCCCCCCCC\C=C/F,00000000100000000100000000100000010000100000000000000010000000000000000000001000100000000000000000000000000000000100000100000000
cis-1-bromo-2-methyl-1-butene,149.03046,592.21,0.331,390.15,CCCCCCCCC\C=C/F,00000000100000000100000000100000010000100000000000000010000000000000000000001000100000000000000000000000000000000100000100000000
cis-1-bromo-3-methyl-1-butene,149.03046,582.5,0.326,383.15,C\C=C/CF,00000000100000000000000000000000010000000000000000000010000000000000000000001000100000010000000000000000000000000000000000000001
cis-1-chloro-1-butene,90.55228,521.07,0.252,336.65,CC/C=C\Cl,00000010000000000001000000000000010000100000001000000010000000000000000000001000100000000000000000000000000000000000000000000001
cis-1-chloro-1-decene,174.71356,682.53,0.516,496.15,CC(C)\C=C/F,01000000100000000000000000010000011000000000000000000010000000000000000000000000000000001000000000000000000000000100000000000000
cis-1-chloro-1-dodecene,202.76732,716.62,0.598,536.15,CC\C=C/I,00000000010000000000010000000000010000100000001000000010000000000000000000001000100000000000000000000000000000000000000000000100
cis-1-chloro-1-eicosene,314.98236,815.57,0.779,656.15,CCCCCCCC\C=C/I,00000000010000000100010000100000010000100000000000000010000000000000000000001000100000000000000000000000000000000000000100000100
cis-1-chloro-1-heptadecene,272.90172,782.44,0.749,617.15,CCCCCCCCCC\C=C/I,00000000010000000100010000100000010000100000000000000010000000000000000000001000100000000000000000000000000000000000000100000100
cis-1-chloro-1-heptene,132.63292,613.52,0.385,423.15,CCCCCCCCCCCCCCCCCC\C=C/I,00000000010000000100010000100000010000100000000000000010000000000000000000001000100000000000000000000000000000000000000100000100
cis-1-chloro-1-hexadecene,258.87484,771.23,0.727,603.15,CCCCCCCCCCCCCCC\C=C/I,00000000010000000100010000100000010000100000000000000010000000000000000000001000100000000000000000000000000000000000000100000100
cis-1-chloro-1-hexene,118.60604,583.61,0.341,394.45,CCCCC\C=C/I,00000000010000000100010000100000010000100000000000000010000000000000000000001000100000000000000000000000000000000000000100000100
cis-1-chloro-1-nonadecene,300.95548,805.2,0.775,644.15,CCCCCCCCCCCCCC\C=C/I,00000000010000000100010000100000010000100000000000000010000000000000000000001000100000000000000000000000000000000000000100000100
cis-1-chloro-1-nonene,160.68668,662.93,0.474,474.15,CCCC\C=C/I,00000000010000000100010000100000010000100000000000000010000000000000000000001000100000000000000000000000000000000000000100000100
cis-1-chloro-1-octadecene,286.9286,794.17,0.765,631.15,CCCCCCCCCCCCCCCCC\C=C/I,00000000010000000100010000100000010000100000000000000010000000000000000000001000100000000000000000000000000000000000000100000100
cis-1-chloro-1-octene,146.6598,640.48,0.43,450.15,CCCCCCC\C=C/I,00000000010000000100010000100000010000100000000000000010000000000000000000001000100000000000000000000000000000000000000100000100
cis-1-chloro-1-pentadecene,244.84796,757.95,0.7,587.15,CCCCCCCCCCCCCCCC\C=C/I,00000000010000000100010000100000010000100000000000000010000000000000000000001000100000000000000000000000000000000000000100000100
cis-1-chloro-1-pentene,104.57916,546.85,0.296,361.65,CCCCCC\C=C/I,00000000010000000100010000100000010000100000000000000010000000000000000000001000100000000000000000000000000000000000000100000100
cis-1-chloro-1-propene,76.5254,485.56,0.208,305.95,CCCCCCCCCCCCC\C=C/I,00000000010000000100010000100000010000100000000000000010000000000000000000001000100000000000000000000000000000000000000100000100
cis-1-chloro-1-tetradecene,230.82108,745.1,0.669,571.15,CCC\C=C/I,00000000010000000100010000100000010000100000000000000010000000000000000000001000100000000000000000000000000000000000000000000100
cis-1-chloro-1-tridecene,216.7942,731.35,0.635,554.15,C\C=C/I,00000000010000000000010000000000010000000000000000000010000000000000000000001000100000000000000000000000000000000000000000000100
cis-1-chloro-1-undecene,188.74044,700.84,0.558,517.15,CCCCCCCCCCCC\C=C/I,00000000010000000100010000100000010000100000000000000010000000000000000000001000100000000000000000000000000000000000000100000100
cis-1-chloro-2-methyl-1-butene,104.57916,553.1,0.271,363.15,CCCCCCCCCCC\C=C/I,00000000010000000100010000100000010000100000000000000010000000000000000000001000100000000000000000000000000000000000000100000100
cis-1-chloro-3-methyl-1-butene,104.57916,558.56,0.267,366.15,CCCCCCCCC\C=C/I,00000000010000000100010000100000010000100000000000000010000000000000000000001000100000000000000000000000000000000000000100000100
cis-1-fluoro-1-decene,158.2592632,593.48,0.515,431.63,CC(C)\C=C/I,01000000010000000000010000010000011000000000000000000010000000000000000000000000000000001000000000000000000000000000000000000100
cis-1-fluoro-1-dodecene,186.3130232,637.82,0.597,477.39,C\C=C/c1ccccc1C,00000000000000000000000000000000010000000000000000000010001000001101000000001000110000100000000000001000000000010000000000000000
cis-1-fluoro-1-eicosene,298.5280632,820.75,0.776,660.43,C\C=C/c1cccc(C)c1,00000000000000000000000000000001010000000000000000000010001000001001000000001000110000100000000000001000000100000100000000000000
cis-1-fluoro-1-heptadecene,256.4474232,750.1,0.747,591.79,C\C=C/c1ccc(C)cc1,00000000000000000000000000000001010000000000000000000010001000000001000000001000110000100000000000001000000000000100000000000000
cis-1-fluoro-1-heptene,116.1786232,525.96,0.385,362.99,C[C@@H]1CC[C@@H](CC1)C(C)C,01000000000000000000000000010110010000000000010000000000001000000000000000000000000000000000000000000000000000000000000000011100
cis-1-fluoro-1-hexadecene,242.4205432,727.24,0.725,568.91,C\C=C/c1ccccc1,00000000000000000000000000000000010000000000000000000010000000001001000000001000110000100000000000001000000000000100000000000000
cis-1-fluoro-1-octene,130.2055032,548.71,0.429,385.87,C\C=C/C,00000000000000000000000000000000010000000000000000000010000000000000000000001000100000000000000000000000000000000000000000000000
cis-1-fluoro-1-pentadecene,228.3936632,704.64,0.699,546.03,C\C=C/C(O)=O,00000100001000000000000000000001010000010000000000000010000000000000000000001000100000000000000000000000000000000000000000000100
cis-1-fluoro-1-pentene,88.1248632,479.34,0.296,317.23,CCCCCCC\C=C/C,00000000000000000100000000100000010000100000000000000010000000000000000000001000100000000000000000000000000000000000000100000000
cis-1-fluoro-1-propene,60.0711032,430.49,0.208,271.47,CCCCCCCCC\C=C/C,00000000000000000100000000100000010000100000000000000010000000000000000000001000100000000000000000000000000000000000000100000000
cis-1-fluoro-1-tridecene,200.3399032,659.99,0.634,500.27,CCCC\C=C/C,00000000000000000100000000100000010000100000000000000010000000000000000000001000100000000000000000000000000000000000000100000000
cis-1-fluoro-1-undecene,172.2861432,615.67,0.557,454.51,CCC\C=C/C,00000000000000000100000000100000010000100000000000000010000000000000000000001000100000000000000000000000000000000000000000000000
cis-1-fluoro-2-butene,74.0979832,455.25,0.251,294.35,C/C=C(/C)C(O)=O,00000100001000000000000000000000010000010000000000000010000000100000000000001000000000001000000000000000000000000000000001000100
cis-1-fluoro-2-methyl-1-butene,88.1248632,482.63,0.271,317.11,C[C@H]1CCCC[C@H]1O,00001000000000000000000000000110010000010000010000000000000000000001000000000000010000000000000000000000010000000000000000010000
cis-1-fluoro-3-methyl-1-butene,88.1248632,482.91,0.266,316.79,C[C@H]1CCCC[C@H]1N,00001000000000000001000000000110010000001000010000000000000000000001000000000000000000000000000000100000000000000000000000010000
cis-1-iodo-1-butene,182.00405,686.08,0.242,441.15,CCCCC\C=C/C,00000000000000000100000000100000010000100000000000000010000000000000000000001000100000000000000000000000000000000000000100000000
cis-1-iodo-1-decene,266.16533,721.89,0.506,523.15,CC\C=C/C,00000000000000000000000000000000010000100000001000000010000000000000000000001000100000000000000000000000000000000000000000000000
cis-1-iodo-1-dodecene,294.21909,747.98,0.588,558.15,CC\C=C/C(O)=O,00000100001000000000000000000001010000110000001000000010000000000000000000001000100000000000000000000000000000000000000000000100
cis-1-iodo-1-eicosene,406.43413,832.59,0.777,669.15,CCCCCCCC\C=C/C,00000000000000000100000000100000010000100000000000000010000000000000000000001000100000000000000000000000000000000000000100000000
cis-1-iodo-1-heptadecene,364.35349,802.73,0.743,632.15,CC/C=C(Cl)/CC,00100000000010000001000000000000010000110000001000000010000000000000000000000000100000000000000100000000000000000000000000000000
cis-1-iodo-1-heptene,224.08469,677.01,0.375,465.15,CCC\C=C/CC,00000000000000000100000000100000010000100000001000000010000000000000000000001000100000000000000000000000000000000000000000000000
cis-1-iodo-1-hexadecene,350.32661,791.82,0.72,618.15,CC\C=C/CC,00000000000000000000000000000000010000100000001000000010000000000000000000001000100000000000000000000000000000000000000000000000
cis-1-iodo-1-hexene,210.05781,659.87,0.33,444.15,CC\C=C/CCOC=O,00000000001001000100000000000001010000100000001000000011000000000000000000001000100000000000000000000010000010000000000000000000
cis-1-iodo-1-nonadecene,392.40725,822.45,0.772,657.15,C[C@@H]1CCC[C@H](O)C1,00001000000010000000000000000110010000010000010000000000000000000000000000000010000000000000000000000000010000000000000000011000
cis-1-iodo-1-nonene,252.13845,708.62,0.463,505.15,C[C@@H]1CCC[C@H](N)C1,00001000000010000001000000000110010000001000010000000000000000000000000000000000000000000000000000000000000000000000000000011000
cis-1-iodo-1-octadecene,378.38037,812.93,0.76,645.15,CCCCC\C=C/CCO,00000000000000000100000000100000010000110000000000000010000000000000000000001000100000000100001000000000000000000000000100000000
cis-1-iodo-1-octene,238.11157,692.75,0.419,485.15,CCCC\C=C/CC,00000000000000000100000000100000010000100000001000000010000000000000000000001000100000000000000000000000000000000000000100000000
cis-1-iodo-1-pentadecene,336.29973,781.44,0.693,604.15,C\C=C/C#C,00000000000000000001000000000000011000100000000001000010000000000000000000001010100000000000000000000000000000000000000000000000
cis-1-iodo-1-pentene,196.03093,641.17,0.286,422.15,C\C=C/CC(O)=O,00000100001000000000000000000000010000010000000000000010000000010000000001001000100000000000000000000000000000000000000000000100
cis-1-iodo-1-tetradecene,322.27285,771.57,0.661,590.15,C[C@H]1CC[C@@H](O)CC1,00000000000000000000000000000110010000010000010000000000000000000000000000000010000000000000000000000000010000000000000000011000
cis-1-iodo-1-tridecene,308.24597,759.56,0.626,574.15,C[C@H]1CC[C@@H](N)CC1,00000000000000000001000000000110010000001000010000000000000000000000000000000000000000000000000000000000000000000000000000011000
cis-1-iodo-1-undecene,280.19221,735.45,0.548,541.15,CCC\C=C/CCC,00000000000000000100000000100000010000100000000000000010000000000000000000001000100000000000000000000000000000000000000000000000
cis-1-iodo-2-methyl-1-butene,196.03093,628.8,0.261,410.98,CCCCCC\C=C/CCC,00000000000000000100000000100000010000100000000000000010000000000000000000001000100000000000000000000000000000000000000100000000
cis-1-iodo-3-methyl-1-butene,196.03093,629.33,0.257,410.66,CCCC\C=C/CCCC,00000000000000000100000000100000010000100000000000000010000000000000000000001000100000000000000000000000000000000000000100000000
cis-1-methyl-2-(1-propenyl)benzene,132.20528,682.61,0.365,465.57,CCCCC\C=C/CCCC,00000000000000000100000000100000010000100000000000000010000000000000000000001000100000000000000000000000000000000000000100000000
cis-1-methyl-3-(1-propenyl)benzene,132.20528,682.61,0.365,465.57,CCCCCCCCCCCCC\C=C/CCCCCCCC,00000000000000000100000000100000010000100000000000000010000000000000000000001000100000000000000000000000000000000000000100000000
cis-1-methyl-4-(1-propenyl)benzene,132.20528,687.86,0.365,469.15,C\C=C/C=O,00000000001000000000000000000000010000000000000010000010000000000000000000001000100000000000100000000000000010000000000000000000
cis-1-methyl-4-isopropylcyclohexane,140.2688,667.0,0.274,445.15,CC1CCC(CC1)C(C)C,01000000000000000000000000010110010000000000010000000000001000000000000000000000000000000000000000000000000000000000000000011100
cis-1-propenylbenzene,118.1784,671.0,0.341,452.03,C1CC[C@@H]2CCCC[C@@H]2C1,00001000000000000000000000000010000000000000010000000000000000000000000001000000000000000000000000000000000000000000000000010000
"cis-2,3-dichloro-2-butene",124.99704,640.0,0.302,398.65,C/C(=C(\C)/Cl)/Cl,00000000000010000001000000000000010000010000000000000000000100000000000000000000000000000000000000000000000000000000000001000000
"cis-2,3-diphenyl-2-butene",208.30304,790.85,0.509,582.82,c1ccc(cc1)\C=C/c2ccccc2,00000000000000000000000000000000000000000000000000000010000000001001000000000000010000100000000000001000000000000100000000000000
"cis-2,cis-4-hexadiene",82.1454,539.46,0.256,353.15,CC(=C/C(O)=O)/C(O)=O,00000100001000000000000000000000010000010000000000000010000000100000000000000000100000001000000010000000000000000000000001000100
cis-2-butene,56.10752,435.58,0.203,276.87,C/C=C\C,00000000000000000000000000000000010000000000000000000010000000000000000000001000100000000000000000000000000000000000000000000000
cis-2-butenoic acid,86.09044,647.0,0.572,445.05,C/C=C\C(=O)O,00000100001000000000000000000001010000010000000000000010000000000000000000001000100000000000000000000000000000000000000000000100