name,molweight,critical temperature (K),acentric factor,boiling point (K),SMILES,ECFP_Bits
4-ethyl-1-methyloctylamine,171.32624,664.56,0.606,493.99,CCCC(CC)(CCC)C(C)C,01000000000000000000000000111000010000110000000000000000000000000000000000000000100000000000000000000001000000010010000000000000
"4-ethyl-2,2-dimethylhexane",142.28468,594.6,0.384,420.16,CCCC(C)(CC)CCC,00000000100001000000000000101000010000110000000000000000000000000000000000000000100000000000000000000000000000000010000000000000
"4-ethyl-2,3-dimethylhexane",142.28468,617.3,0.384,434.06,CCCCC(O)(CC)CCC,00000000100000000000000000101000010000110000000000000000000000000000000000000000100000000000000000000000000000000010100100000000
"4-ethyl-2,4-dimethylhexane",142.28468,620.9,0.383,434.26,CCCC(CC)(CCC)CCC,00000000000000000000000000101000010000110000000000000000000000000000000000000000100000000000000000000000100000000010000000000000
4-ethyl-2-hexanol,130.23032,595.71,0.773,441.0,CCc1ccc(CCc2ccccc2)cc1,00000001000000000000000000000000010000100000000000000000000000001000000000000000110000100011000000001000000000000000000000000000
4-ethyl-2-methylheptane,142.28468,601.8,0.424,429.36,CCC(CC)\C=C/C,01000000100000000000000000000000011000100000000000000010000000000000000000001000100000001000000000000000000000000000000000000000
4-ethyl-2-methylhexane,128.2578,580.0,0.386,406.96,CCc1ccc(C)cc1C,00000001000000000000000000000001010000100000000000000000001000000000010000000000110000100000000000001000000100010000000000000000
4-ethyl-2-methylpyridine,121.18208,653.0,0.376,452.15,CCc1ccc(C)c(C)c1,00000001000000000000000000000000010000100000000000000000001000000000000000000000110000100010000000001000000100010000000000000000
"4-ethyl-3,3-dimethylhexane",142.28468,625.7,0.358,436.06,CCC(CC)\C=C\C,01000000100000000000000000000000011000100000000000000010000000000000000000001000100000001000000000000000000000000000000000000000
4-ethyl-3-hexanol,130.23032,590.5,0.773,437.15,CCc1ccc(cc1)c2ccccc2,00000001100000000000000000000000010000100000000000000000000000001000000000000000110000100010000000001000000000000000000000000000
4-ethyl-3-methylheptane,142.28468,614.3,0.41,435.36,CCC1CCC=CC1,00000000000000000000000000000110010000100000011000000000000000000000000000000000110000100000000000000000100000000000000000010000
4-ethyl-4-heptanol,144.2572,605.58,0.78,452.15,CCC1CC=CC1,00000000000000000000000000000110010000100000001000000000000000000000000000000000110000100000000000000000100000000000000000010000
4-ethyl-4-isopropylheptane,170.33844,648.03,0.461,473.15,CCCCCCC(CC)CCC,01000000100010000000000000100000010000100000000000000000000000000000000000000000100000000000000000010000000000000000000100000000
4-ethyl-4-methylheptane,142.28468,615.7,0.39,433.96,CCc1ccc(Cc2ccccc2)cc1,00000001000000000000001000000000010000100000000000000000000000001000000000000000110000100010000000001000000000000000000000000000
4-ethyl-4-octanol,158.28408,616.17,0.819,466.0,CCCC(CC)CCC,01000000100010000000000000100000010000100000000000000000000000000000000000000000100000000000000000010000000000000000000000000000
4-ethyl-4-propylheptane,170.33844,640.2,0.489,470.15,CCCCCC(CC)CCC,01000000100010000000000000100000010000100000000000000000000000000000000000000000100000000000000000010000000000000000000100000000
4-ethyl-bibenzyl,210.31892,771.0,0.578,565.15,CCCCC(CC)CCC,01000000100010000000000000100000010000100000000000000000000000000000000000000000100000000000000000010000000000000000000100000000
4-ethyl-cis-2-hexene,112.21504,562.03,0.347,386.15,CCc1ccncc1,00000001000000000000000000000000010000100000000000000000000000000001000000100000110000100010000000001000000000000000000000100000
4-ethyl-m-xylene,134.22116,665.0,0.414,461.59,CCC1CCSCC1,00000000000000000000010000000110010100100000011000000000000000000000000000000001100000000000000000000000000000000000000000010000
4-ethyl-o-xylene,134.22116,667.0,0.411,462.93,FCCC=C,00000000100000000100000000000000000000000000100000000010000000000000000000000000100001110000000000000000000001000000000000000000
4-ethyl-trans-2-hexene,112.21504,562.03,0.347,386.15,CC(F)CC=C,01000100100000000000000000110000011000000000100000000010000000000000000000000000100000100000000000000000000001000000000000000000
4-ethylbiphenyl,182.26516,806.0,0.427,556.15,CC(=C)CCF,00000000100000000000000000001000010000010000000000000000000000000000000000000000101001110000000000000000000000000000000001000010
4-ethylcyclohexene,110.19916,611.67,0.285,406.15,CC(CF)C=C,01000000100000000000000100010000010000000000000000000010100000000000000000000000100000110000000000000000000001000000000000000000
4-ethylcyclopentene,96.17228,566.02,0.27,371.36,C\C=C/C(C)F,01000000100000000000000000110000010000000001000000000010000000000000000000001000100000001000000000000000000000000000000000000000
4-ethyldecane,170.33844,642.63,0.548,477.15,C/C=C/C(C)F,01000000100000000000000000110000010000000001000000000010000000000000000000001000100000001000000000000000000000000000000000000000
4-ethyldiphenylmethane,196.29204,793.82,0.522,570.18,OC(=O)c1ccc(C=O)cc1,00000100001000000000000000000000000000010000000000000010000000000000000010000000010000100000000000001000010010000100000000000100
4-ethylheptane,128.2578,584.95,0.416,414.36,CCCC(N)CCC,01000000000000000011000000100000010000100000000000000000000000000000000000000000101000000000000000010000000000000000000000000000
4-ethylnonane,156.31156,624.66,0.507,457.15,CCCC(O)CCC,01000000000000000000000000100000010000110000000000000000000000000000000000000000100000000000000000010000000000000000001000000000
4-ethyloctane,142.28468,609.6,0.443,436.8,CCCC(=O)CCC,00000000001000000000000010101000010000110000000000000000000000000000000000000000100000000000000000000000000000000000000000000100
4-ethylpyridine,107.1552,668.2,0.344,442.35,CCCC(CCC)OC(C)=O,01000000001100000000000000100000010000110000000000000001000000000000010000000000100000000000000000010000000000000000000001000100
4-ethylthiacyclohexane,130.25416,646.42,0.288,426.94,CCCCCCCc1ccc(O)cc1,00000000000000000000000000100000010000110000000000000000000000000010000000000000110000100011000000001000010000000000000100000000
4-fluoro-1-butene,74.0979832,441.88,0.261,286.87,C=CCCF,00000000100000000100000000000000000000000000100000000010000000000000000000000000100001110000000000000000000001000000000000000000
4-fluoro-1-pentene,88.1248632,469.68,0.276,309.31,ICCC=C,00000000000000000100010000000000000000000000100000000010000000001000000000000000100000110000000000000000000001000000000000000000
4-fluoro-2-methyl-1-butene,88.1248632,469.43,0.281,309.63,CC(I)CC=C,01000100000000001000010000010000010000000000100000000010000000000000000000000000100000100000000000000000000001000000000000000000
4-fluoro-3-methyl-1-butene,88.1248632,469.68,0.276,309.31,CC(=C)CCI,00000000000000000000010000001000010000010000000000000000000000001000000000000000101000110000000000000000000000000000000001000010
4-fluoro-cis-2-pentene,88.1248632,482.91,0.266,316.79,CC(CI)C=C,01000100000000000000010100010000010000000000000000000010100000000000000000000000100000110000000000000000000001000000000000000000
4-fluoro-trans-2-pentene,88.1248632,482.91,0.266,316.79,C\C=C/C(C)I,01000000000000001000010000010000010000000000000000000010000001000000000000001000100000001000000000000000000000000000000000000000
4-formylbenzoic acid,150.13384,966.0,0.817,702.0,C/C=C/C(C)I,01000000000000001000010000010000010000000000000000000010000001000000000000001000100000001000000000000000000000000000000000000000
4-heptanamine,115.21872,565.35,0.409,412.65,CCCC(I)CCC,01000000000000001000010000100000010000100000000000000000000000000000000000000000100000000100000000010000000000000000000000000000
4-heptanol,116.20344,583.1,0.764,427.85,CC(C)Cc1ccc(N)cc1,01000000000000000001000000010000010000000000000001000001000000000000000000000001110000100010000000001000000000000000000010000000
4-heptanone,114.18756,602.0,0.412,417.15,CC(C)Cc1ccc(O)cc1,01000000000000000000000000010000010000010000000000000001000000000010000000000001110000100010000000001000010000000000000000000000
4-heptyl acetate,158.24072,643.9,0.499,444.15,CC(C)Cc1ccc(C=C)cc1,01000000000000000000000000010000010000000000000000000011000000000000000000000001110000100010000000011000000001000100000000000000
4-heptylphenol,192.3012,760.33,0.61,429.15,CC(C)CCc1ccc(O)cc1,01000000000000000000000000010000010000010000000000000001000000000010000000000000110000100011000000011000010000000000000000000000
4-hydroxybutraldehyde,88.10632,599.0,0.84,432.0,CC(C)C1CC=C(C)C1,01000000000000000000000000010010010000000000000000000000001100000000000000000000010000100000000000001001000000000000010000010100
4-iodo-1-butene,182.00405,619.52,0.252,400.0,CCCC(O)(CCC)C(C)C,01000000000000000000000000111001010000110000000000000000000000000000000000000000100000000000000000000001000000000010100000000000
4-iodo-1-pentene,196.03093,615.43,0.267,403.18,CC(C)c1ccc(N)cc1,01000000000000000001000000010000010000000000000001000000000000000000000000000000010001100000000000001000000000000000000010000000
4-iodo-2-methyl-1-butene,196.03093,624.84,0.271,410.0,CCCC(CCC)C(C)C,01000000000000000000000000110000010000100000000000000000000000000000000000000000101000000000000000010000000001000000000000000000
4-iodo-3-methyl-1-butene,196.03093,615.43,0.267,403.18,CCCCCC(CCC)C(C)C,01000000000000000000000000110000010000100000000000000000000000000000000000000000101000000000000000010000000001000000000100000000
4-iodo-cis-2-pentene,196.03093,629.33,0.257,410.66,CCCCC(CCC)C(C)C,01000000000000000000000000110000010000100000000000000000000000000000000000000000101000000000000000010000000001000000000100000000
4-iodo-trans-2-pentene,196.03093,629.33,0.257,410.66,CC(C)c1ccc(O)cc1,01000000000000000000000000010000010000010000000000000000000000000010000000000000010001100000000000001000010000000000000000000000
4-iodoheptane,226.10057,646.56,0.816,477.1,CC(C)c1ccncc1,01000000000000000000000000010000010000000000000000000000000000000001000000100000010001100000000000001000000000000000000000100000
4-isobutylaniline,149.23584,690.0,0.69,510.15,COc1ccc(CC(O)=O)cc1,10000100001000000000000000000000010000010000000000000001000000000010010001000000110000100010000000001000000000000000000000000100
4-isobutylphenol,150.22056,733.21,0.51,510.15,CSc1ccc(C)cc1,00000000001000000000000000000001010000000001000000000000001100000000000000000000010000100000000000001000000000000000100000000000
4-isobutylstyrene,160.25904,735.0,0.463,524.0,CCSc1ccc(C)cc1,00000000000000000000000000000001010001100001000000000000001000000000000000000000110001100000000000001000000000000000100000000000
4-isopentylphenol,164.24744,751.0,0.569,528.15,CC(c1ccccc1)c2ccc(C)cc2,01000001000000000000000000010001010000000000000000000000001000001000000000000000010001100000000000001000000000000000000000000000
4-isopropyl-1-methylcyclopentene,124.22604,626.53,0.359,415.65,Cc1ccc(CCc2ccccc2)cc1,00000000000000000000000000000001010000000000000000000000001000001000000000000000110000100011000000001000000000000000000000000000
4-isopropyl-4-heptanol,158.28408,615.36,0.788,463.15,CC(C)[CH]=[C]=[CH2],01000000000000000000000000010000011000000000000000000010000000000000000000000000000010100000000001000000000000000000000000000000
4-isopropylaniline,135.20896,705.58,0.413,498.15,CC(C)=CC=C,00000000000000001000000000000000010000010000000000000010000000000000000000000000000000100000000000000000010001000000000001000000
4-isopropylheptane,142.28468,607.6,0.416,432.06,CCCC(C)CCCO,01000000000000000000000000110000010000110000000000000000000000000000000000000000100000010100001000010000000000000000000100000000
4-isopropylnonane,170.33844,638.02,0.519,471.15,CCCC(C)CC=C,01000100000000000000000000110000010000100000100000000010000000000000000000000000100000110000000000010000000001000000000000000000
4-isopropyloctane,156.31156,620.12,0.478,451.15,CCC(C)CCCO,01000000100000000000000000010000010000110000000000000000000000000000000000000000100000010100001000010000000000000000000100000000
4-isopropylphenol,136.19368,736.3,0.464,502.35,CC(C)C1=CC=C(C=C1)O,01000000000000000000000000010000010000010000000000000000000000000010000000000000010001100000000000001000010000000000000000000000
4-isopropylpyridine,121.18208,653.0,0.376,451.15,CCC(C)CC=C,01000100100000000000000000010000010000100000100000000010000000000000000000000000100000110000000000000000000001000000000000000000
4-methoxybenzeneacetic acid,166.1766,768.0,0.898,564.0,CCC(C)CCCN,01000000100000000001000000010000010000100000000010000000000000000000000000000000100001010000000000010000000000000000000100000000
4-methyl-(1-thiaethyl)-benzene,138.2334,729.78,0.371,490.15,CCC(C)CC#C,01000000110000000001000000010000011000100000000000000000000000000000000000000010100000010000000000000000000000000000000000000000
4-methyl-(1-thiapropyl)-benzene,152.26028,719.2,0.416,493.15,CCCCCC(C)CCCO,01000000000000000000000000110000010000110000000000000000000000000000000000000000100000010100001000010000000000000000000100000000
"4-methyl-1,1-diphenylethane",196.29204,789.13,0.491,563.15,CCCCC(C)CCCO,01000000000000000000000000110000010000110000000000000000000000000000000000000000100000010100001000010000000000000000000100000000
"4-methyl-1,2-diphenylethane",196.29204,781.25,0.522,561.15,CC(C)CCCO,01000000000000000000000000010000010000010000000000000001000000000000000000000000100000000100001000010000000000000000000100000000
"4-methyl-1,2-pentadiene",82.1454,528.04,0.237,343.15,CC(C)CC=C,01000100000000000000000000010000010000000000100000000011000000000000000000000000100000100000000000000000000001000000000000000000
"4-methyl-1,3-pentadiene",82.1454,535.66,0.241,349.45,CC(C)CC#C,01000000010000000001000000010000011000100000000000000001000000000000000000000010100000000000000000000000000000000000000000000000
4-methyl-1-heptanol,130.23032,613.14,0.806,456.35,Cc1cccc2CC=Cc12,00000000000000000000000000000010010100000000000000000000001000001000000000000000010010100000010000001000100001010000000000000000
4-methyl-1-heptene,112.21504,559.87,0.357,385.95,CCC(C)CC(CC)CO,01000000100010000000000000010000010000111000000000000000000000000000000000000000100000010000001000100000000000000000000000000000
4-methyl-1-hexanol,116.20344,608.04,0.764,446.15,CCC(CO)CC(C)C,01000000100010000000000000010000010000111000000000000001000000000000000000000000100000000000001000100000000000000000000000000000
"4-methyl-1-hexanol, (±)",116.20344,587.2,0.709,446.15,CCC(=C)CC(C)C,01100000001000000000000000010000010000110000000000000001000000000000000000000000100010100000000000000000000000000000000000000010
4-methyl-1-hexene,98.18816,534.0,0.302,359.88,CCc1cc(C)ccc1O,00000001000000000000000000000001010000110000000000000000001000000010010100000000110000100000000000001000000100000000000000000000
4-methyl-1-hexylamine,115.21872,565.35,0.409,426.15,CCCC(C)CC(C)O,01000000000000000100000000110000010000111000000000000000000000000000000000000000100000010000000000010000000000000000000000000000
4-methyl-1-hexyne,96.17228,551.35,0.27,364.15,CCC(C)CC(C)N,01000000100000000011000000010000010000101000000000000001000000000000000000000000100000010000000000000000000000000000000000000000
4-methyl-1-nonanol,158.28408,638.09,0.883,489.15,CCC(C)CC(C)O,01000000100000000100000000010000010000111000000000000000000000000000000000000000100000010000000000010000000000000000000000000000
4-methyl-1-octanol,144.2572,627.23,0.846,473.0,CCC(C)CC(C)=O,01000000101000100000000000010000010000110000000000000000000000000000000000000000100000010000000000000000000000000000000001000100
4-methyl-1-pentanol,102.17656,603.5,0.591,424.95,CCC(C)C#CC,01000000100000000000001100010000011000100000000000000000000000000000000000000000100000000000000100000000000000000000000010000000
4-methyl-1-pentene,84.16128,496.0,0.239,327.01,CC(C)CC(CO)CC(C)C,01000000000010000000000000010000010000011000000000000001000000000000000000000000100000000000001000100000000000000000000000000000
4-methyl-1-pentyne,82.1454,518.2,0.226,334.32,CCC(C)CC(CO)C(C)C,01000000100000000000000000010000010000111000000000000000000000000000000000000000101000010000001000100000000001000000000000000000
4-methyl-1H-indene,130.1894,693.5,0.332,482.15,CC(C)CC(CO)C(C)C,01000000000000000000000000010000010000011000000000000001000000000000000000000000101000000000001000100000000001000000000000000000
4-methyl-2-ethyl-1-hexanol,144.2572,623.87,0.814,468.15,CC(C)c1cc(C)ccc1O,01000000000000000000000000010001010000010000000000000000001000000010000100000000010000100000000000001000000101000000000000000000
4-methyl-2-ethyl-1-pentanol,130.23032,607.39,0.773,449.65,CC(C)CC(C)O,01000000000000000100000000010000010000011000000000000001000000000000000000000000100000000000000000010000000000000000000000000000
4-methyl-2-ethyl-1-pentene,112.21504,559.75,0.332,383.45,CC(C)CC(C)=O,01000000001000100000000000010000010000010000000000000001000000000000000000000000100000000000000000000000000000000000000001000100
4-methyl-2-ethylphenol,136.19368,719.75,0.495,495.55,CC=CC(C)C,01000000000000000000000000010000011000000000000000000010000000000000000000001000100000001000000000000000000000000000000000000000
4-methyl-2-heptanol,130.23032,600.77,0.773,444.75,CC#CC(C)C,01000000000000000000000100010000011000000000000000000000000010000000000000000000000000000000000100000000000000000000000010000000
4-methyl-2-hexanamine,115.21872,565.35,0.409,405.65,CCCC(CO)CC(C)CC,01000000100010000000000000110000010000111000000000000000000000000000000000000000100000010000001000110000000000000000000000000000
4-methyl-2-hexanol,116.20344,581.44,0.731,424.15,CCCC(CO)CC(C)C,01000000000010000000000000110000010000111000000000000001000000000000000000000000100000000000001000110000000000000000000000000000
4-methyl-2-hexanone,114.18756,592.42,0.451,412.15,CCCc1cc(C)ccc1O,00000000000000000000000000100001010000110000000000000000001000000010010100000000110000100001000000001000000100000000000000000000
4-methyl-2-hexyne,96.17228,568.05,0.25,372.69,CCC(C)CSC,01000000101000000000001000010000010000100000000000000000000000000000010000000000100000010000000000000000000000000000100000000000
4-methyl-2-isobutyl-1-pentanol,158.28408,629.93,0.822,477.15,CSCC(C)C,01000000001000000000001000010000010000000000000000000001000000000000010000000000100000000000000000000000000000000000100000000000
4-methyl-2-isopropyl-1-hexanol,158.28408,625.97,0.822,474.15,CCCC(C)C(CC)(CC)CC,01000100000000000000000000110000010000110000000000000000000000000000000000000000100000000000000000010000000000010010000000000000
4-methyl-2-isopropyl-1-pentanol,144.2572,615.26,0.784,460.15,CCCC(C)(CC)C(CC)CC,01000000100000000000000000101000110000110000000000000000000000000010000000000000100000000000000000000000000000000010000000000000
4-methyl-2-isopropylphenol,150.22056,719.35,0.509,501.15,CCC(CC)C(C)C(CC)CC,01000000100000000000000000010000010000100000000000000000000000000000000000000000101000000000000000000100000000000000000000000000
4-methyl-2-pentanol,102.17656,574.4,0.573,404.85,CCC(CCO)C(C)C,01000000100000000000000000010000010000110000000000000000000000000000000000000000101000000100001000010000000001000000000000000000
4-methyl-2-pentanone,100.16068,574.6,0.356,389.15,CCC(C=C)C(C)C,01000000100000000000000000010000010000100000000000000010100000000000000000000000100000100000000000000000000001000000100000000000
4-methyl-2-pentene,84.16128,506.59,0.25,330.35,CCC(C(C)C)C(C)O,01000000100000000000000000010100010000110000000000000000000000001000000000000000100000000000000000010000000001000000000000000000
4-methyl-2-pentyne,82.1454,540.58,0.206,346.28,CCC(C)C(O)(CC)CC,01000100100000000000000000010001010000110000000000000000000000000000000000000000100000000000000000000000000000000010100000000000
4-methyl-2-propyl-1-hexanol,158.28408,633.27,0.852,481.15,CCCC(CC(C)CC)CO,01000000100010000000000000110000010000111000000000000000000000000000000000000000100000010000001000110000000000000000000000000000
4-methyl-2-propyl-1-pentanol,144.2572,620.94,0.813,465.15,CCCC(CC(C)C)CO,01000000000010000000000000110000010000111000000000000001000000000000000000000000100000000000001000110000000000000000000000000000