name,molweight,critical temperature (K),acentric factor,boiling point (K),SMILES,ECFP_Bits
"2-methyl-3-hexanol, (±)",116.20344,587.2,0.709,416.15,CCCCCC(=O)C(C)C,01000000001000000000000000111000010000110000000000000001000000000000010000000000100000000000000000000000000000000000000100000100
2-methyl-3-hexanone,114.18756,583.8,0.451,406.15,CCC(O)C(C)C,01000000100000000000000000010000010000110000000000000000000000000000000000000000100000000000000000010000000001000000000010000000
2-methyl-3-hexyne,96.17228,561.44,0.25,368.35,CCC(OC(C)=O)C(C)C,01000000101100000000000000010000010000110000000000000001000000000000010000000000100000000000000000000000010001000000000001000100
2-methyl-3-isopropyl-3-hexanol,158.28408,620.04,0.759,465.15,CCCc1cccc(O)c1C,00000000000000000000000000100000010000110000000000000000001000001010010100000000110000100001000000001000000000000000000000001000
2-methyl-3-isopropyl-3-pentanol,144.2572,609.6,0.718,451.15,CCCSC(C)C,01000000000000000000000000110010010000100000000000000000000000000000010000000001100000000000000000000000000000000000100000000000
2-methyl-3-isopropylheptane,156.31156,624.32,0.449,451.45,CCSC(C)C,01000000000000000000000000010000010001100000000000000000000000000000010000000001100000000000000000000000000000000000100000000000
2-methyl-3-isopropyloctane,170.33844,638.89,0.491,469.15,CCCCCCCCCCC(O)C(C)C,01000000000000000000000000110000010000110000000000000000000000000000000000000000100000000000000000010000000001000000000110000000
2-methyl-3-isopropylphenol,150.22056,785.78,0.509,547.43,CCCCCCCCCCC(=O)C(C)C,01000000001000000000000000111000010000110000000000000001000000000000010000000000100000000000000000000000000000000000000100000100
2-methyl-3-nonanol,158.28408,633.8,0.852,481.55,CCCCCCCCC(O)C(C)C,01000000000000000000000000110000010000110000000000000000000000000000000000000000100000000000000000010000000001000000000110000000
2-methyl-3-nonanone,156.2682,656.59,0.612,473.0,CCCC(CC)(CC)CC(C)C,01000000000000000000000000111000010000110000000000000001010000000000000000000000100000000000000000000000100000000010000000000000
2-methyl-3-nonene,140.2688,616.98,0.457,434.15,CCC(CC)(CC)CC(C)C,01000000000000000000000000010000010000110000000000000001010000000000000000000000100000000000000000000000100000000010000000000000
2-methyl-3-octanol,144.2572,609.21,0.814,457.15,CCC(CC)C(CC)CC(C)C,01000000100000000000000000010000010000101000000000000001000000000000000000000000101000000000000000000000000000000000000000000000
2-methyl-3-octanone,142.24132,629.65,0.541,456.0,CCc1csc(C)c1,00000001000000000000000000000001010100101000000000000000001000000000000000000000110000000010000000001000000100000000000000000000
2-methyl-3-pentanol,102.17656,564.4,0.576,399.66,CCC(CC)C(O)C(C)C,01000000100000000000000000010000010000110000000000000000000001000000000000000000101000000000000000010000000001000000000000000000
2-methyl-3-pentyl acetate,144.21384,618.0,0.54,422.15,CCC(CC)C(C(C)C)C(C)C,01000100100000000000000000010000010000100000000000000000000000000000000000000000101000000000000000000000000001000000000000000000
2-methyl-3-propylphenol,150.22056,733.95,0.541,515.0,CCc1cc(C)cc2ccccc12,00000001000000000000000000000001010000100000000000000000001000011000010000000100110000100000000000001000000100000000000000000000
2-methyl-3-thiahexane,118.24316,598.65,0.351,405.2,CCCCCC(CC)CC(C)C,01000000100010000000000000110000010000101000000000000001000000000000000000000000100000000000000000010000000000000000000100000000
2-methyl-3-thiapentane,104.21628,585.0,0.223,380.53,CCCCC(CC)CC(C)C,01000000100010000000000000110000010000101000000000000001000000000000000000000000100000000000000000010000000000000000000100000000
2-methyl-3-tridecanol,214.3916,736.2,0.686,547.15,CCc1ccc(O)c(C)c1,00000001000000000000000000000000010000110000000000000000001000000010000100000000110000100010000000001000000100010000000000000000
2-methyl-3-tridecanone,212.37572,712.65,0.759,540.15,CCCC(O)CC(C)C,01000000000000000000000000110000010000111000000000000001000000000000000000000000100000000000000000010000000000000000001000000000
2-methyl-3-undecanol,186.33784,712.9,0.635,512.53,CCCC(=O)CC(C)C,01000000001000000000000010111000010000110000000000000001000000000000000000000000100000000000000000000000000000000000000000000100
"2-methyl-4,4-diethylheptane",170.33844,639.81,0.461,467.15,CCCC(CC(C)C)C(C)C,01000000000000000000000000110000010000101000000000000001000000000000000000000000101000000000000000010000000001000000000000000000
"2-methyl-4,4-diethylhexane",156.31156,629.17,0.419,452.15,CCCCC(CC(C)C)C(C)C,01000000000000000000000000110000010000101000000000000001000000000000000000000000101000000000000000010000000001000000000100000000
"2-methyl-4,5-diethylheptane",170.33844,634.8,0.491,466.15,CC(C)c1ccc(O)c(C)c1,01000000000000000000000000010000010000010000000000000000001000000010000100000000010001100000000000001000000100010000000000000000
2-methyl-4-ethyl thiophene,126.2224,655.0,0.342,436.15,CCCCCC(O)CC(C)C,01000000000000000000000000110000010000111000000000000001000000000000000000000000100000000000000000010000000000000000001100000000
2-methyl-4-ethyl-3-hexanol,144.2572,605.43,0.782,452.0,CCCCC(O)CC(C)C,01000000000000000000000000110000010000111000000000000001000000000000000000000000100000000000000000010000000000000000001100000000
2-methyl-4-ethyl-3-isopropylhexane,170.33844,630.72,0.491,463.15,CCCC=CCC(C)C,01000100000000000100000000110000010000100000000000000011000000000000000000001000100000000000000000000000000000000000000000000000
2-methyl-4-ethylnaphthalene,170.25416,772.19,0.493,547.15,CCCC(CCC)CC(C)C,01000000000010000000000000110000010000101000000000000001000000000000000000000000100000000000000000010000000000000000000000000000
2-methyl-4-ethylnonane,170.33844,638.02,0.519,471.15,CCCCC(CCC)CC(C)C,01000000000010000000000000110000010000101000000000000001000000000000000000000000100000000000000000010000000000000000000100000000
2-methyl-4-ethyloctane,156.31156,617.37,0.478,449.15,CCCc1ccc(O)c(C)c1,00000000000000000000000000100000010000110000000000000000001000000010000100000000110000100011000000001000000100010000000000000000
2-methyl-4-ethylphenol,136.19368,727.31,0.495,500.75,CCCC(CC(C)C)C(C)(C)C,01000000100000000000000000110000110000101000000000000001000000000000000000000000100000000000000000010000000001000010000000000000
2-methyl-4-heptanol,130.23032,593.34,0.773,439.25,CCCCCCCCCC(O)CC(C)C,01000000000000000000000000110000010000111000000000000001000000000000000000000000100000000000000000010000000000000000001100000000
2-methyl-4-heptanone,128.21444,624.0,0.528,427.15,CCC(CC)(CC)CCC(C)C,01000000000000000000000000011000010000110000000000000001000000000000000000000000100000000000000000010000100000000010000000000000
2-methyl-4-isopropylheptane,156.31156,615.61,0.449,445.15,CCc1sc(C)cc1,00000001000000001000000000000000011100100000000000000000001000000000000000000000110000100000000000001000000000000000000000000000
2-methyl-4-isopropyloctane,170.33844,630.72,0.491,463.15,CCc1cccc2cc(C)ccc12,00000001000000000000000000000001010000100000000000000000001000011000010000000100110000100000000000001000000100000000000000000000
2-methyl-4-isopropylphenol,150.22056,785.78,0.509,547.0,CCCCC(CC)CCC(C)C,01000000100010000000000000110000010000100000000000000001000000000000000000000000100000000000000000010000000000000000000100000000
2-methyl-4-nonanol,158.28408,634.39,0.852,482.0,CCCC(CC)CCC(C)C,01000000100010000000000000110000010000100000000000000001000000000000000000000000100000000000000000010000000000000000000000000000
2-methyl-4-octanol,144.2572,609.21,0.814,457.15,CCc1ccc(C)c(O)c1,00000001000000000000000000000000010000110000000000000000001000000010000100000000110000100010000000001000000100010000000000000000
2-methyl-4-octene,126.24192,593.62,0.411,412.15,CCC/C=C/CC(C)C,01000100000000000100000000110000010000100000000000000011000000000000000000001000100000000000000000000000000000000000000000000000
2-methyl-4-propylheptane,156.31156,614.62,0.478,447.15,CC(C)c1ccc(C)c(N)c1,01000000000000100001000000010000010000000000000001000000001000000000000000000000010001100000000000001000000100010000000000000000
2-methyl-4-propyloctane,170.33844,628.54,0.519,464.15,CCCC(CCC(C)C)C(C)C,01000000000000000000000000110000010000100000000000000001000000000000000000000000101000000000000000010000000001000000000000000000
2-methyl-4-propylphenol,150.22056,734.16,0.541,515.15,CC(C)c1ccc(C)c(O)c1,01000000000000000000000000010000010000010000000000000000001000000010000100000000010001100000000000001000000100010000000000000000
2-methyl-4-tert-butylheptane,170.33844,631.25,0.432,458.15,CCCCC(O)CCC(C)C,01000000000000000000000000110000010000110000000000000001000000000000000000000000100000000000000000010000000000000000001100000000
2-methyl-4-tridecanol,214.3916,736.2,0.686,552.35,CCCCC(=O)CCC(C)C,01000000001000000000000010111000010000110000000000000001000000000000000000000000100000000000000000010000000000000000000100000100
"2-methyl-5,5-diethylheptane",170.33844,645.29,0.461,471.15,CCCC(CCC)CCC(C)C,01000000000010000000000000110000010000100000000000000001000000000000000000000000100000000000000000010000000000000000000000000000
2-methyl-5-ethyl thiophene,126.2224,650.65,0.342,433.25,CCCc1ccc(C)c(O)c1,00000000000000000000000000100000010000110000000000000000001000000010000100000000110000100011000000001000000100010000000000000000
2-methyl-5-ethylnaphthalene,170.25416,766.55,0.493,543.15,CCCCCCC(O)CCC(C)C,01000000000000000000000000110000010000110000000000000001000000000000000000000000100000000000000000010000000000000000001100000000
2-methyl-5-ethylnonane,170.33844,635.31,0.519,469.15,CCc1ccc2cc(C)ccc2c1,00000001000000000000000000000001010000100000000000000000001000010000000000000000110000100010000000001000000100000000000000000000
2-methyl-5-ethyloctane,156.31156,620.12,0.478,451.15,CCCC(CC)CCCC(C)C,01000000100010000000000000110000010000100000000000000001000000000000000000000000100000000000000000010000000000000000000100000000
2-methyl-5-ethylphenol,136.19368,727.45,0.495,500.85,CCC(CC)CCCC(C)C,01000000100010000000000000010000010000100000000000000001000000000000000000000000100000000000000000010000000000000000000100000000
"2-methyl-5-isopropyl-1,3-cyclohexadiene, (±)",136.23704,647.0,0.341,448.65,CCc1cccc(C)c1O,00000001000000000000000000000000010000110000000000000000001000001010010000100000110000100000000000001000000000010000000000000000
2-methyl-5-isopropylaniline,149.23584,690.0,0.69,514.15,CC(C)c1cccc(C)c1O,01000000000000000000000000010000010000010000000000000000001000001010000000100000010000100000000000001000000001010000000000000000
2-methyl-5-isopropyloctane,170.33844,632.08,0.491,464.15,CCCc1cccc(C)c1O,00000000000000000000000000100000010000110000000000000000001000001010010000100000110000100001000000001000000000010000000000000000
2-methyl-5-isopropylphenol,150.22056,732.26,0.509,510.15,CCc1ccc2ccc(C)cc2c1,00000001000000000000000000000001010000100000000000000000001000010000000000000000110000100010000000001000000100000000000000000000
2-methyl-5-nonanol,158.28408,634.39,0.852,482.0,CCC(CC)CCCCC(C)C,01000000100010000000000000010000010000100000000000000001000000000000000000000000100000000000000000010000000000000000000100000000
2-methyl-5-nonanone,156.2682,656.59,0.612,476.65,CCc1cccc2ccc(C)cc12,00000001000000000000000000000001010000100000000000000000001000011000010000000100110000100000000000001000000100000000000000000000
2-methyl-5-propyloctane,170.33844,628.54,0.519,464.15,CC(C)c1cccc2ccc(C)cc12,01000000000000000000000000010001010000000000000000000000001000011000000000000100010000100000000000001000000101000000000000000000
2-methyl-5-propylphenol,150.22056,733.95,0.541,515.0,CN(C)c1ccccc1C,00000000000100000000000000000000010010000000000000000000001000001000000000000000010000100000000000101000000000010100000000000000
2-methyl-5-undecanol,186.33784,712.9,0.635,512.53,CC1CCc2ccccc2C1,00000000000000000000000000000110010000000000010000000000000000001000000000100000010010100000000000001001000000000000000000011000
2-methyl-6-ethylnaphthalene,170.25416,766.56,0.488,543.16,CCC\C=C/C(C)C,01000000000000000100000000110000011000100000000000000010000000000000000000001000100000001000000000000000000000000000000000000000
2-methyl-6-ethylnonane,170.33844,638.02,0.519,471.15,CC\C=C/C(C)C,01000000000000000000000000010000011000100000001000000010000000000000000000001000100000001000000000000000000000000000000000000000
2-methyl-6-ethylphenol,136.19368,707.55,0.495,487.15,CCC/C=C/C(C)C,01000000000000000100000000110000011000100000000000000010000000000000000000001000100000001000000000000000000000000000000000000000
2-methyl-6-isopropylphenol,150.22056,746.4,0.509,498.65,CC/C=C/C(C)C,01000000000000000000000000010000011000100000001000000010000000000000000000001000100000001000000000000000000000000000000000000000
2-methyl-6-propylphenol,150.22056,733.95,0.541,515.0,CCCC1=CC=CC(=C1O)C,00000000000000000000000000100000010000110000000000000000001000001010010000100000110000100001000000001000000000010000000000000000
2-methyl-7-ethylnaphthalene,170.25416,766.56,0.488,543.16,Cc1ccccc1C=O,00000000001000000000000000000000010000010000000000000010001000001100000000000000010000100000000000001000000010010000000000000000
2-methyl-7-ethylnonane,170.33844,643.43,0.519,475.15,Cc1ccccc1CO,00000000000000000000000000000000010000010000000000000000001000001000010000000000110000100000001000001000000000010000000000000000
2-methyl-8-ethylnaphthalene,170.25416,766.55,0.493,543.15,Cc1oc2ccccc2c1,00000000000000001000000000000000010000000000000000000000001000011000100000000010010000100000000000001000000100000000000000000000
2-methyl-8-isopropylnaphthalene,184.28104,775.28,0.507,555.15,Cc1ccccc1c2ccccc2,00000000100000000000000000000000010000000000000000000000001000001000000000000000010000100000000010001000000000010000000000000000
"2-methyl-N,N-dimethylaniline",135.20896,705.58,0.413,467.25,CCC(C)C=O,01000000101000000000000100010000010000100000000000000010000000000000000000000000100000000000000000000000000010000000000000001000
2-methyl-cis-3-heptene,112.21504,560.58,0.347,385.15,CCC(C)C#N,01000000100000000000001000010000011000100000000000000000000000000000000000000000100000000100000000000000100000000000000000000000
2-methyl-cis-3-hexene,98.18816,533.58,0.302,359.15,CCC(C)C(O)=O,01000100101000000000000000010000010000110000000000001000000000000000000000000000100000000000000010000000000000000000000000000100
2-methyl-cis-decahydronaphthalene,152.2798,713.14,0.331,489.15,CCC(C)COC(C)=O,01000000101100000001000000010000010000110000000000000001000000000000000000000000100000010000000000000000000000000000001001000100
2-methyl-trans-3-heptene,112.21504,560.58,0.347,385.15,CCCC(=O)OCC(C)CC,01000000101000000001000000111000010000110000000000000001000000000000000000000000100000010000000000000000001000000000001000000100
2-methyl-trans-3-hexene,98.18816,533.44,0.302,359.05,CCC(C)COC=O,01000000101000000000000000010001010000100000000000000011000000000000000000000000100000010000000000000010000010000000001000000000
2-methyl-trans-decahydronaphthalene,152.2798,701.48,0.331,481.15,CCC(C)COC(=O)CC,01100000101000000001000000010000010000110000000000000001000000000000000000000000100000010000000000000000001000000000001000000100
2-methylbenzaldehyde,120.15092,694.0,0.435,474.15,CCC(C)CN,01000000100000000001000000010000010000100000000000000000000000000000000000000000100001010000000000000000000000000000010000000000
2-methylbenzenemethanol,122.1668,691.0,0.743,497.15,CCC(C)C(O)=O,01000100101000000000000000010000010000110000000000001000000000000000000000000000100000000000000010000000000000000000000000000100
2-methylbenzofuran,132.16192,697.0,0.375,470.15,CC1=CC2=CC=CC=C2O1,00000000000000001000000000000000010000000000000000000000001000011000100000000010010000100000000000001000000100000000000000000000
2-methylbiphenyl,168.23828,790.07,0.425,528.65,CC1=CC=CC=C1C2=CC=CC=C2,00000000100000000000000000000000010000000000000000000000001000001000000000000000010000100000000010001000000000010000000000000000
2-methylbutanal,86.1338,543.73,0.388,365.15,CCCCCCCCC(C)C,01000000000000000000000000110000010000100000000000000001000000000000000000000000100000000000000000010000000000000000000100000000
"2-methylbutanal, (±)",86.1338,542.02,0.373,365.65,Cc1ccccc1Cc2ccccc2,00000000000000000000001000000000010000000000000000000000001000001000010000000000110000100010000000001000000000010000000000000000
2-methylbutanenitrile,83.1332,585.8,0.397,398.55,CCCCCCCCCCC(C)C,01000000000000000000000000110000010000100000000000000001000000000000000000000000100000000000000000010000000000000000000100000000
2-methylbutanoic acid,102.1332,643.0,0.589,450.15,CCCCCCCCCCC(C)C(O)=O,01000100001000000000000000110000010000110000000000001000000000000000000000000000100000000000000010010000000000000000000100000100
2-methylbutyl acetate,130.18696,589.0,0.459,413.15,CCC(=C)C(O)=O,00100100001000000000000100000000010000110000000000000000000000100000000000000000100000100000000000000000000000000000000000000110
2-methylbutyl butanoate,158.24072,620.0,0.728,452.15,Cc1occc1,00000000000000001001000000000000010000000000000000000000001000001000000000000010010000100000000000001000000000000000000000000000
2-methylbutyl formate,116.16008,577.0,0.378,393.76,CCCCCCCCCCCCCCCC(C)C,01000000000000000000000000110000010000100000000000000001000000000000000000000000100000000000000000010000000000000000000100000000
2-methylbutyl propanoate,144.21384,609.0,0.572,440.22,CCCCCC(C)C,01000000000000000000000000110000010000100000000000000001000000000000000000000000100000000000000000010000000000000000000100000000
2-methylbutylamine,87.16496,542.6,0.416,368.65,CCCCCC(C)C(O)=O,01000100001000000000000000110000010000110000000000001000000000000000000000000000100000000000000010010000000000000000000100000100
2-methylbutyric acid,102.1332,643.0,0.589,450.15,CCC(C)C(=O)O,01000100101000000000000000010000010000110000000000001000000000000000000000000000100000000000000010000000000000000000000000000100
2-methylcyclohexanol; (cis+trans),114.18756,635.0,0.685,438.9,CCCCCCCCCCCCCCC(C)C,01000000000000000000000000110000010000100000000000000001000000000000000000000000100000000000000000010000000000000000000100000000
2-methylcyclohexylamine; (cis+trans),113.20284,622.0,0.386,422.65,CCCCC(C)C=O,01000000001000000000000100110000010000100000000000000010000000000000000000000000100000000000000000010000000010000000000100001000
2-methyldecane,156.31156,631.76,0.507,462.34,CCCCC(C)C,01000000000000000000000000110000010000100000000000000001000000000000000000000000100000000000000000010000000000000000000100000000
2-methyldiphenylmethane,182.26516,784.15,0.478,553.65,CCCCC(C)C(O)=O,01000100001000000000000000110000010000110000000000001000000000000000000000000000100000000000000010010000000000000000000100000100
2-methyldodecane,184.36532,668.02,0.586,502.65,CCCCCCCCCCC(C)C,01000000000000000000000000110000010000100000000000000001000000000000000000000000100000000000000000010000000000000000000100000000
2-methyldodecanoic acid,214.34824,746.59,0.937,542.21,CC1=Cc2ccccc2C1,00000000000000000000000000001010010000001000000000000000001100001000000000000000010010100000000000001000000000000000000000000000
2-methylenebutanoic acid,100.11732,676.0,0.415,453.15,Cc1ccc2ccccc2c1,00000000000000000000000000000001010000000000000000000000001000011000000000000000010000100000000000001000000100000000000000000000
2-methylfuran,82.10204,527.0,0.283,337.85,CCCCCCCCCCCCCCCCCC(C)C,01000000000000000000000000110000010000100000000000000001000000000000000000000000100000000000000000010000000000000000000100000000
2-methylheptadecane,254.49972,739.33,0.727,585.15,CCCCCCCC(C)C,01000000000000000000000000110000010000100000000000000001000000000000000000000000100000000000000000010000000000000000000100000000
2-methylheptane,114.23092,559.64,0.377,390.8,CCCCCCCCCCCCCCCCC(C)C,01000000000000000000000000110000010000100000000000000001000000000000000000000000100000000000000000010000000000000000000100000000
2-methylheptanoic acid,144.21384,692.0,0.779,436.35,CCCCCCC(C)C=O,01000000001000000000000100110000010000100000000000000010000000000000000000000000100000000000000000010000000010000000000100001000