name,molweight,critical temperature (K),acentric factor,boiling point (K),SMILES,ECFP_Bits
8-methylquinoline,143.1882,764.56,0.452,521.07,CCCCCCCCC#CCCCCCCCC,00000000000000000000000100100100011000100000000000000000000000000000000000000000100000000000000000000000000000000000000100000000
8-nonen-1-ol,142.24132,629.65,0.541,456.62,CC(=C)C1CCC(=CC1)C,00000000000000000000000000000010010000010000010000000000001100000000000000100010010000100100000000001000000000000000010001010010
8-pentadecanone,226.4026,723.72,0.787,564.15,CC(O)C(C)O,01000000000000000000000000010100010000010000000000000000000000000000000000000000000000000000000000010000000000000000000000000000
8-pentadecene,210.4032,706.17,0.663,549.62,CC(Br)C(C)Br,01000000000000000000000000010000010000000000000010000000000000100000000000000000000000001000000000000000000000000000000000000000
9-(4-tolyl)octadecane,344.62436,841.84,0.778,683.15,C[C@@H](Cl)[C@@H](C)Cl,01000000000000000011000000010000010000000000000000000000000000000000000000000000000000000000000000000000000000000000000001000000
9-cyclohexyleicosane,364.69888,853.38,0.708,689.65,CC(C(C)c1ccccc1)c2ccccc2,01000000000000000000000000010000010000000000100000000000000000001000000000000000010001100000000000001000000000000000000000000000
9-heptadecanol,256.47224,767.2,0.798,599.15,CCCCC(N)CO,01000000000000000011000000100000010000110000000000000000000000000000000000000000101000000000001000110000000000000000000100000000
9-heptadecanone,254.45636,745.97,0.827,524.65,CCCC(N)CO,01000000000000000011000000100000010000110000000000000000000000000000000000000000101000000000001000110000000000000000000000000000
9-hexylheptadecane,324.63412,803.12,0.734,653.35,S.CC(=C)[C@H]1CCC(=CC1)C,00000000000000000000000000000010010000010000010000000000001100000000000000100010010000100100000000001000000000000000010001010010
9-methylheptadecane,254.49972,737.16,0.724,582.27,N[C@@H](Cc1ccccc1)C(O)=O,01000100001000000011000000000000000000010000000000001000010000001000000000000001110000100010000000001000000000000000000000000100
9-methyloctadecanoic acid,298.50952,810.0,1.07,690.66,CNc1ccccc1C,10000000000000000000001000000000010000000000000000000000001000001000000010000000010000100010000000001000000000010000000000000000
9-octadecene,252.48384,746.71,0.755,594.74,CNc1cccc(C)c1,10000000000000000000001000000001010000000000000000000000001000011000000000000000010000100010000000001000000100000000000000000000
9-octadecyne,250.46796,754.15,0.709,593.12,CNc1ccc(C)cc1,10000000000000000000001000000001010000000000000000000000001000010000000000000000010000100010000000001000000000000000000000000000
D-limonene,136.23704,660.0,0.312,449.65,CC(C)(C)NCCNC(C)(C)C,10000000100000000000000000010000010000000000000000000000000000000000000000000000100000000101000000000000000000000010000000000000
"DL-2,3-butanediol",90.1222,611.0,1.106,453.85,CCNCCNCC,10000000000000000000000000010000010000100000000000000000000000100000000000000000100000000000000000000000000010000000000000000000
"DL-2,3-dibromobutane",215.91552,656.19,0.403,433.65,CNCCNC,10000000000000000000001000010000010000000000000000000000000000000000000000010000100000000000000000000000000000000000000000000000
"DL-2,3-dichlorobutane",127.01292,598.18,0.278,392.65,CNCCCNC,10000000000000000000001000010000010000000000000000000000000000000000000000010000100000000000000000000000000000000000000100000000
"DL-2,3-diphenylbutane",210.31892,778.3,0.452,577.2,N(c1ccccc1)c2ccc(Nc3ccccc3)cc2,10000000000000000000000000000000000000000000000000000000000000011000000000000000010000100000000000001000000100000000000000000000
DL-2-amino-1-hexanol,117.19124,681.0,0.97,464.15,CN(C)c1c(C)cccc1C,00000000000100000000000100000000010010000000000000000000001000001000000000000000010000100000000000001000000000010100000000000000
DL-2-amino-1-pentanol,103.16436,626.41,0.841,467.65,CN(C)CCN(C)C,00000000000110000000000000000001010000000000000000000000000000000000000000000000100000000000000000000000000000000100000000000000
L-limonene,136.23704,660.0,0.313,451.15,CN(C)CN(C)C,00000000000110000000000000000000010000000000000000000000000000000000000000000000100000000000000000000000000000000100100000000000
L-phenylalanine,165.19188,854.0,0.852,628.0,CNCCCN(C)C,10000000000110000000001000010001010000000000000000000000000000000000000000010000100000000000000000000000000000000100000100000000
"N,2-dimethylaniline",121.18208,695.58,0.433,480.65,CNCCN(C)C,10000000000110000000001000010001010000000000000000000000000000000000000000010000100000000000000000000000000000000100000000000000
"N,3-dimethylaniline",121.18208,695.58,0.433,479.65,C=CCN(CC=C)CC=C,00000000000000000000000000000000000000000000100001000010000000000000000000000000100000100000000000000000000001000100000000010000
"N,4-dimethylaniline",121.18208,695.58,0.433,483.15,CCN(CC)CCN,00000000000000000001000000000001010010100000000010000000000000000000000000000000100001000000000000000000000000000100000000010000
"N,N'-di-tert-butylethylenediamine",172.31404,625.0,0.628,462.15,CC(C)(C)NCCNC(C)(C)C,10000000100000000000000000010000010000000000000000000000000000000000000000000000100000000101000000000000000000000010000000000000
"N,N'-diethyl-1,2-ethanediamine",116.20652,663.0,0.65,419.15,CC(C)CN(C(C)C)C(C)C,01000000000000000000000000010000010000000000000000000001000000000000100000000000101000000000000000000000000000000100000000000000
"N,N'-dimethyl-1,2-ethanediamine",88.15276,612.33,0.533,393.15,CC(C)N(C)C,01000000000100000000000000010000010000000000000000000000000000000100100000000000000000000000000000000000000000000100000000000000
"N,N'-dimethyl-1,3-propanediamine",102.17964,637.67,0.591,418.15,CN(C)C(C)=O,00000000001100000000000000000000010000010000000000001000000000000000000000000000000000000000000000000000000000000100010001000100
"N,N'-diphenyl-p-phenylenediamine",260.33852,1017.0,0.859,772.0,CN(C)c1ccccc1,00000000000100000000000000000000010010000000000000000000000000001000000010000000010000100000000000001000000000000100000000000000
"N,N,2,6-tetramethylaniline",149.23584,690.0,0.69,469.15,CN(C)CCN,00000000000110000001000000000001010000000000000010000000000000000000000000000000100001000000000000000000000000000100000000000000
"N,N,N',N'-tetramethyl-1,2-ethanediamine",116.20652,569.0,0.392,394.15,CN(C)C=O,10000000001100000000000000000000011000000000000000000010000000000000000000000000000000000000000000000000000010000100000000000000
"N,N,N',N'-tetramethylmethanediamine",102.17964,637.67,0.591,356.15,CCCCCCC(C)NC(C)CCCCCC,11000000000000000000000000110000010000100000000000000000000000000000000000000000100100000000000000110000000000000000000100000000
"N,N,N'-trimethyl-1,3-propanediamine",116.20652,663.0,0.65,414.15,CC(=O)Nc1ccc(O)cc1,10000000001000000000000010000000010000010000000000000000000000010010000000000000010000100000000000001000010000000000010001000100
"N,N,N'-trimethylethylenediamine",102.17964,637.67,0.591,390.15,C=CCNCC=C,10000000000000000000000000000000000000000000100000000110000000000000000000000000100000100000000000000000000011000000000000000000
"N,N-diallyl-2-propen-1-amine",137.22484,592.0,0.499,423.65,NCCNCCO,10000000000000000001000000010000000000010000000010000000000000000000000000000000100001000100001000000000000010000000000000000000
"N,N-diethyl-1,2-ethanediamine",116.20652,663.0,0.65,417.15,NCCN1CCNCC1,00000000000000000001000000001010000000010000000011000000000000000000000010000000100001000010000000000000000000000000000001000001
"N,N-dietyhlaniline",149.23584,702.0,0.426,489.42,CCCCNc1ccccc1,10000000100000000000000000110000010000100000000000000000000000011000000000000000110000100000000000001000000000000000000100000000
"N,N-diisopropylisobutylamine",157.29936,644.56,0.585,445.0,CCCCNCCN,10000000000000000001000000110000010000100000000010000000000000000000000000000000100001000000000000000000000010000000000100000000
"N,N-dimethyl-2-propanamine",87.16496,525.16,0.379,339.18,CCNCCN,10000000000000000001000000010000010000100000000010000000000000100000000000000000100001000000000000000000000010000000000000000000
"N,N-dimethylacetamide",87.1216,658.0,0.364,439.25,CC(=O)N(C)C,00000000001100000000000000000000010000010000000000001000000000000000000000000000000000000000000000000000000000000100010001000100
"N,N-dimethylaniline",121.18208,687.15,0.402,466.69,CCNCC(C)=C,10000000000000000000000000000000110000110000000000000000000000100000000000000000101000100000000000000000000010000000000001000010
"N,N-dimethylethylenediamine",88.15276,612.33,0.533,378.65,CCNc1ccccc1C,10000000100000000000000000000000010000100000000000000000001000101000000010000000110000100000000000001000000000010000000000000000
"N,N-dimethylformamide",73.09472,649.6,0.318,426.15,CCNc1cccc(C)c1,10000000100000000000000000000001010000100000000000000000001000111000000000000000110000100000000000001000000100000000000000000000
N-(1-methylheptyl)-2-octanamine,241.46064,732.83,0.793,556.15,CCNc1ccc(C)cc1,10000000100000000000000000000001010000100000000000000000001000110000000000000000110000100000000000001000000000000000000000000000
N-(4-hydroxyphenyl)acetamide,151.165,736.0,0.8,530.0,CCN(O)CC,00000000000000100000000000000000010010110000000000000000000000000000000000000000100000000000000000000000000000000101000000000000
N-allyl-2-propen-1-amine,97.16008,556.0,0.448,384.15,CCN(C(C)C)C(C)C,01000000000000000000000000010000010010100000000000000000000000000000100000000000101000000000000000000000000000000100000000000000
N-aminoethyl ethanolamine,104.15216,698.0,1.05,517.0,CCN(C)c1ccccc1,00000000000100000000000000000000010010100000000000000000000000001000000010000100110000100000000000001000000000000100000000000000
N-aminoethyl piperazine,129.20532,708.0,0.557,493.55,CCCN(CC)CCC,00000000000000000000000000100001010010100000000000000000000000000000000000000000100000000000000000000000000000000100000000010000
N-butylaniline,149.23584,690.0,0.69,516.65,CCNc1ccccc1,10000000100000000000000000000000010000100000000000000000000000111000000000000000110000100000000000001000000000000000000000000000
N-butylethylenediamine,116.20652,663.0,0.65,431.15,CCNC=O,10001000001000000000000000000000010000100000000000000010000000100000000000000000100000000000000000000000000010000000001000000000
"N-ethyl-1,2-ethanediamine",88.15276,612.33,0.533,402.15,CC(C)CNc1ccccc1,11000000100000000000000000010000010000000000000000000001000000011000000000000000110000100000001000001000000000000000000000000000
"N-ethyl-2-butanamine, (±)",101.19184,559.92,0.404,371.15,CC(C)NCCCN,11001000000000100001000000010000010000000000000010000000000000000000000000000000100001000000000000000000000000000000000100000000
N-ethyl-2-methylallylamine,99.17596,556.0,0.355,377.9,CC(C)N(C)C(C)(C)C,01000000100100000000000000010000010000000010000000000000000000000000100000001000000000000000000000000000000000000110000000000000
N-ethyl-2-methylaniline,135.20896,705.58,0.413,489.15,CC(C)Nc1ccccc1,11001000000000000000000000010000010000000000000000100000000000011000000000000000010000100000000000001000000000000000000000000000
N-ethyl-3-methylaniline,135.20896,705.58,0.413,494.15,CC(C)NCCN,11001000000000100001000000010000010000000000000010000000000000000000000000000000100001000000000000000000000000000000000000000000
N-ethyl-4-methylaniline,135.20896,705.58,0.413,490.15,CCCCCC(C)NC,11000000000000000000001000110000010000100000000000000000000000000000000000000000100000000000000000110000000000000001000100000000
N-ethyl-N-hydroxyethanamine,89.13748,567.0,0.715,403.7,CN1CCCC1=O,00001000001000000000000000000110010000010000000000000000001000000000000010100000000000000000000000001000000000000000000001000000
N-ethyl-N-isopropyl-2-propanamine,129.2456,601.45,0.5,399.65,CNC(C)=O,10000000001000000000001000000000010000010000000000000000000000000000000000000000000000000100000000000000000000000000010001000100
N-ethyl-N-methylaniline,135.20896,705.58,0.413,477.15,CNc1ccccc1,10000000000000000000001000000000010000000000000000000000000000011000000000000000010000100010000000001000000000000000000000000000
N-ethyl-N-propyl-1-propanamine,129.2456,601.45,0.5,411.15,CNC1CCCCC1,10001000000000000000001000000010010000000000010000000000000000000100000000000000000000000000000000100000000000000000000000010000
N-ethylaniline,121.18208,698.55,0.415,476.15,CCCCN(C)CCCC,00000000000100000000000000100001010000100000000000000000000000000000000000000000100010000000000000000000000000000100000100000000
N-ethylformamide,73.09472,647.0,0.376,471.15,CCCCCCN(C)CCCCCC,00000000000100000000000000100001010000100000000000000000000000000000000000000000100010000000000000000000000000000100000100000000
N-isobutylaniline,149.23584,690.0,0.69,505.15,CNC=O,10001000001000000000001000000000010000000000000000000010000000000000000000000000000000010000000000000000000010000000000000000000
"N-isopropyl-1,3-propanediamine",116.20652,663.0,0.65,435.15,Cn1cccc1,00000000000000000000000000000000010000010000000000000010000000001000000000000100010000000000000000000000000000000000000001000000
N-isopropyl-N-methyl-tert-butylamine,129.2456,601.45,0.5,400.15,CN1CCCC1=S,00001000000000000000000000000110010000010000000000000100000000000000000010100000000000000000000001001000000000000000000001000000
N-isopropylaniline,135.20896,705.58,0.413,476.15,[O-][N+](=O)Nc1ccccc1,10000000011000000000000000000000000000000001000000000000000000011000001000010000010000100000000000001000010000000100000000000000
N-isopropylethylenediamine,102.17964,637.67,0.591,409.15,CCCNCCCN,10000000000000000001000000110000010000100000000010000000000000000000000000000000100001000000000000000000000010000000000100000000
N-methyl-2-heptanamine,129.2456,601.45,0.5,428.15,CCCNc1ccccc1,10000000100000000000000000110000010000100000000000000000000000011000000000000000110000100000000000001000000000000000000000000000
N-methyl-2-pyrrolidone,99.1326,721.6,0.373,477.42,CCCCNCCC,10000000000000000000000000110000010000100000000000000000000000000000000000000000100000000000000000000000000010000000000100000000
N-methylacetamide,73.09472,718.0,0.435,478.15,CCCNCCN,10000000000000000001000000110000010000100000000010000000000000000000000000000000100001000000000000000000000010000000000000000000
N-methylaniline,107.1552,701.55,0.475,469.02,CCC(C)Nc1ccccc1,11000000100000000000000000010000010000100000000000100000000000011000000000000000110000100000000000101000000000000000000000000000
N-methylcyclohexylamine,113.20284,622.0,0.386,422.0,CC(C)(C)Nc1ccccc1,10000000100000000000000000000000010000000000000000000000000001011000000000000000010000100001000000001000000000000010000000000000
N-methyldibutylamine,143.27248,617.4,0.567,432.75,CC(C)NC(C)(C)C,11001000100000000000000000010000010010000000000000000000000000000000000000000000000000000001000000000000000000000010000000000000
N-methyldihexylamine,199.38,694.76,0.685,520.48,CSCc1ccccc1,00000000001000000000001000000000010000000000000000000000000000001000000000000000110000100010000000001000000000000000100000100000
N-methylformamide,59.06784,721.0,0.41,472.66,O=C1CCCCC1C2CCCCC2,00001000001000000000000000000010000000000000010000000000001000000000000101100000000000000000000000001000000000000010000000010000
N-methylpyrrole,81.11732,610.0,0.213,385.89,CC(C)C(C(C)C)c1ccccc1,01000000000000000000000000010000010010000000000000000000000000001000000000000000010001100000000000001000000001000000000000000000
N-methylthiopyrrolidone,115.1992,869.0,0.238,557.0,CC(CC(=O)OC)C(=O)OC,11000000001000000001000000010000010000010000000000000001000000000000000001000000100000000000000010000000001000000000000000000100
N-nitroaniline,138.12592,816.67,0.754,557.33,C1=CC=C(C=C1)N[N+](=O)[O-],10000000011000000000000000000000000000000001000000000000000000011000001000010000010000100000000000001000010000000100000000000000
"N-propyl-1,3-propanediamine",116.20652,663.0,0.65,442.15,CCCNCCCN,10000000000000000001000000110000010000100000000010000000000000000000000000000000100001000000000000000000000010000000000100000000
N-propylaniline,135.20896,705.58,0.413,495.15,C1Cc2cccc3cccc1c23,00000000000000000000000000000010000000000000000000000000000000011000000000100000010010100000000000001000000000000000000000000000
N-propylbutylamine,115.21872,565.35,0.409,406.65,c1cc2cccc3C=Cc(c1)c23,00000000000000000000000000000000000100001000000000000000000000011000000000000000010000100000000000001000000000000000000000000000
N-propylethylenediamine,102.17964,637.67,0.591,421.65,CCOC(C)OCC,01000000000000000000000000010000010000100000000000000001010010000000000000000000100000100000000000000000000000000000000000000000
N-sec-butylaniline,149.23584,690.0,0.69,498.15,CC=O,00000000001000000000000000000000010000000000000000001010000000000000000000001000000000000000000000000000000010000000000000000000
N-tert-butylaniline,149.23584,690.0,0.69,488.15,CC=NO,00000000000000000000000000000000010000011000000000000010000000000000000000001000000001010000000000000000000000000001000000000000
N-tert-butylisopropylamine,115.21872,565.35,0.409,371.15,CC(N)=O,00000000001010000001000000000000010000010000000000000000000000000000100000000000000000000000000000000000000000000000000001000100
[(methylthio)methyl]benzene,138.2334,725.28,0.374,483.15,CC(=O)Nc1ccccc1,10000000001000000000000010000000010000010000000000000000000000011000000000000000010000100000000000001000000000000000010001000100
"[1,1'-bicyclohexyl]-2-one",180.2902,787.0,0.315,537.15,CC(O)=O,00000100001000000000000000000000010000010000000000000000000000000000000000000000000000000000000000000000000000000000000001001100
[2-methyl-1-isopropylpropyl]benzene,176.3018,714.0,0.529,493.85,CC(=O)OC(C)=O,00100000001100000000000000000000010000010000000000000001000000000000000000000000000000000000000000000000000000000000000001000100
"a,2-dimethylstyrene",132.20528,675.92,0.378,450.45,CC(=O)CC(=O)Nc1ccccc1,10000000001000100000000010000000010000010100000000000000000000011000000000000000110000100000000000001000000000000000000001000100
a-a-p-trichlorotoluene,195.4748,737.0,0.26,483.65,CC(C)=O,00000000001001000000000000000000010000010000000000000000000000000000000000000000000000000000000000000000000000000000000001000100
a-terpineol,154.25232,675.0,0.699,492.95,CC(C)(O)C#N,00000000100000000000001000000000011000010000000000000000000000000000000000000000000000100000000000000000100000000010100000000000
acenaphthene,154.2114,803.15,0.381,550.54,CC#N,00000000000000000000001000000000011000000000000000000000000000000000000000000000000000000000000001000000100000000000000010000000
acenaphthylene,152.19552,792.0,0.399,543.15,CC(=O)c1ccccc1,00000000001000000000000000001000010000010000000000000000000000001000000000000000010000100000000000001000010000000000000001000100
acetal,118.17596,539.7,0.487,376.65,CC(Cl)=O,00000000001010000001000000000000010010010000000000000000000000000000000000000000000000000000000000000000000000000000000001000100
acetaldehyde,44.05316,466.0,0.291,294.0,CC(=O)CC(C)=O,10000000001000100000000000000000010000010000000000000000000000000000000000000000100000000000000000000000000000000000000001000100
acetaldoxime,59.06784,568.0,0.638,388.35,C#C,00000000000000000001000000000000000000000000000000000000000000000000000000000000000000000000000100000000000000000000000000000000
acetamide,59.06784,761.0,0.421,494.3,c1ccc2nc3ccccc3cc2c1,00000000000000000000000000000000000000000000000000000000000000011000000001000000010000100000000000001000000100000000000000100000
acetanilide,135.1656,825.0,0.565,576.95,C=CC=O,00000000001000001000000000000000000000000000000000000010000000000000000000000000000000100000100000000000000011000000000000000000
acetic acid,60.05256,591.95,0.467,391.05,NC(=O)C=C,00000000001010000001000000000000000000010000010000000010000000010000000000000000000000100000000000000000000001000000000000000100
acetic anhydride,102.08984,606.0,0.454,412.7,OC(=O)C=C,00000100001000000000000000000000000000010000000000000010000000010000000000000000100000100000000000000000000001000000000000000100
acetoacetanilide,177.20288,879.0,0.795,648.0,C=CC#N,00000000000000000000001000000100001000000000000000000010000000000000000000000000010000100000000000000000100001000000000000000000