name,molweight,critical temperature (K),acentric factor,boiling point (K),SMILES,ECFP_Bits
"4,4-dimethyl-1-pentene",98.18816,520.28,0.253,345.67,CCC(=O)C(C)(C)CC,00100000101000000000000000000000010000110000000000000000000000000000000000000000100000010000000100000000000000000010000000000100
"4,4-dimethyl-1-pentyne",96.17228,538.28,0.21,349.23,CC(C)C(CCO)C(C)(C)C,01000000100000000000000000010000010000010000000000000000000000000000000000000000100000000100001000010000000001000010000000000000
"4,4-dimethyl-2-hexanol",130.23032,594.21,0.706,435.0,CCCC(CC)C(C)(C)CCC,01000000100000000000000000101000110000100000100000000000000000000000000000000000100000000000000000010000000000000010000000000000
"4,4-dimethyl-2-neopentyl-1-pentene",168.32256,656.77,0.548,488.99,CCCC(C)(C)CC(CC)CC,01000000100010000000000000101000010000100000000000000000010000000000000000010000100000000000000000000000000000000010000000000000
"4,4-dimethyl-2-pentanol",116.20344,570.48,0.662,411.15,CCC(C)(C)\C=C/C,00000000100000000000000000000000010000110000000000000010000000000000000000001000100000000000000000000000000001000010100000000000
"4,4-dimethyl-2-pentanone",114.18756,580.9,0.387,398.15,C\C=C/C(C)(C)C,00000000100000000000000000000000010000000000000000000010000000000000000000001000100000000000000000000010000001000010000000000000
"4,4-dimethyl-2-pentyne",96.17228,552.81,0.191,356.15,CCC(C)(C)\C=C\C,00000000100000000000000000000000010000110000000000000010000000000000000000001000100000000000000000000000000001000010100000000000
"4,4-dimethyl-2-thiapentane",118.24316,602.51,0.29,401.15,C/C=C/C(C)(C)C,00000000100000000000000000000000010000000000000000000010000000000000000000001000100000000000000000000010000001000010000000000000
"4,4-dimethyl-3-ethyl-2-pentanol",144.2572,624.08,0.716,461.0,CC1(C)CCC=CC1,00000000001000000000000000000010010010000000000000000000000001000000000000000001010000000000000000000000100000000000000000110000
"4,4-dimethyl-3-ethylheptane",156.31156,624.99,0.419,449.15,CC1(C)CC=CC1,00000000000000000000000000000010010010000000000000000000000001000000000000000001010000000000000000000000100000000000000000100000
"4,4-dimethyl-3-ethyloctane",170.33844,645.29,0.461,471.15,CCCCCCC(C)(C)CCC,00000000100000000000000000101000010000100000000000000000000000000000000000010000100000000000000000000000000000000010000100000000
"4,4-dimethyl-3-hexanol",130.23032,590.31,0.706,432.15,CCCC(C)(C)CCC,00000000100000000000000000101000010000100000000000000000000000000000000000010000100000000000000000000000000000000010000000000000
"4,4-dimethyl-3-hexanone",128.21444,624.0,0.528,421.15,CCCCCC(C)(C)CCC,00000000100000000000000000101000010000100000000000000000000000000000000000010000100000000000000000000000000000000010000100000000
"4,4-dimethyl-3-isopropyl-1-pentanol",158.28408,608.9,0.757,456.0,CCCCC(C)(C)CCC,00000000100000000000000000101000010000100000000000000000000000000000000000010000100000000000000000000000000000000010000100000000
"4,4-dimethyl-5-ethyloctane",170.33844,642.55,0.461,469.15,CC1(C)CCSCC1,00000000001000000000010000000010010110000000000000000000000000000000000000000001000000000000000000000000000000000000000000100000
"4,4-dimethyl-6-ethyloctane",170.33844,635.7,0.461,464.15,CC(CCCO)C(C)(C)C,01000100100000000000000000010000010000010000000000000000000000000000000000000000100000000100001000010000000001000010000100000000
"4,4-dimethyl-cis-2-hexene",112.21504,560.54,0.287,379.15,CCCCC(C)(C)C(C)CCC,01000100100000000000000000111000010000100000100000000000000000000000000000000000100000000000000000010000000000000010000100000000
"4,4-dimethyl-cis-2-pentene",98.18816,534.97,0.244,353.58,CCCC(C)C(C)C(C)CCC,01000000000000000000000000110000010000100000000000000000000000000000000000000000100000000000000000010100000000000000000001000000
"4,4-dimethyl-trans-2-hexene",112.21504,560.54,0.287,379.15,CCCC(Br)C(Br)CCC,01000000000000000000000000100000010000100000000000000000000000100000000000100000100000001000000000010000000000000000000000000000
"4,4-dimethyl-trans-2-pentene",98.18816,528.63,0.243,349.89,CCCC(CC)C(CC)CCC,01000000100000000000000000100000010000100000000000000000000000000000000000000000101000000000000000010000000000000000000000000000
"4,4-dimethylcyclohexene",110.19916,597.08,0.247,390.39,CC(C)C(C)CCCO,01000000000000000000000000010000010000010000000000000000000000000000000000000000100000000100001000010000000001000000000101000000
"4,4-dimethylcyclopentene",96.17228,559.35,0.232,361.15,CC(C)C(C)CC=C,01000100000000000000000000010000010000000000100000000010000000000000000000000000100000100000000000000000000001000000000001000000
"4,4-dimethyldecane",170.33844,642.92,0.489,472.15,CCCC(C)C(C)CCCO,01000000000000000000000000110000010000110000000000000000000000000000000000000000100000000100001000010000000000000000000101000000
"4,4-dimethylheptane",128.2578,585.4,0.364,408.36,CC(C)C(C)CC(C)O,01000000000000000100000000010000010000011000000000000000000000000000000000000000100000000000000000010000000001000000000001000000
"4,4-dimethylnonane",156.31156,623.85,0.448,451.15,CC=CC(C)C(C)C,01000000000000000000000000010000010000000000000000000010000000001000000000001000100000001000000000000000000001000000000000000000
"4,4-dimethyloctane",142.28468,606.9,0.402,430.66,CCCC(C)C(C)C(CC)CC,01000000100000000000000000110000010000100000000000000000000000000000000000000000101000000000000000010100000000000000000001000000
"4,4-dimethylthiacyclohexane",130.25416,657.02,0.249,427.18,CCC(O)C(C)C(C)C,01000000100000000000000000010000010000110000000000000000000000000000000000000000100000000000000000010100000001000000000010000000
"4,5,5-trimethyl-1-hexanol",144.2572,639.75,0.748,475.15,CCCC(C)C(C)(CC)CCC,01000100100000000000000000111000010000110000000000000000000000000010000000000000100000000000000000010000000000000010000000000000
"4,5,5-trimethylnonane",170.33844,645.29,0.461,471.15,C\C=C/C(C)C(C)C,01000000000000000000000000010000010000000000000000000010000000001000000000001000100000001000000000000000000001000000000000000000
"4,5,6-trimethylnonane",170.33844,641.61,0.491,471.15,C/C=C/C(C)C(C)C,01000000000000000000000000010000010000000000000000000010000000001000000000001000100000001000000000000000000001000000000000000000
"4,5-dibromooctane",272.02304,716.02,0.616,524.48,CCCCCC(C)C(C)CCC,01000000000000000000000000110000010000100000000000000000000000000000000000000000100000000000000000010000000000000000000101000000
"4,5-diethyloctane",170.33844,636.66,0.519,470.15,CCCCC(C)C(C)CCC,01000000000000000000000000110000010000100000000000000000000000000000000000000000100000000000000000010000000000000000000101000000
"4,5-dimethyl-1-hexanol",130.23032,614.62,0.773,455.0,CCCC(C)C(C)CCC,01000000000000000000000000110000010000100000000000000000000000000000000000000000100000000000000000010000000000000000000001000000
"4,5-dimethyl-1-hexene",112.21504,558.62,0.327,382.15,Cc1cccc2nccc(C)c12,00000000000000000000000000000000010000000000100000000000001000001000000001100000010000100000000000001000000000010000000000100000
"4,5-dimethyl-1-octanol",158.28408,638.34,0.852,485.0,CC(O)CC(C)CC(C)(C)C,01000000100000000100000000010000010000011000000000000000010000000000000000000000100000010000000000010100000000000010000000000000
"4,5-dimethyl-2-hexanol",130.23032,590.87,0.741,435.0,CCc1ccc(C)c2cc(C)ccc12,00000001000000000000000000000001010000100000000000000000001000000000010000000100110000100000000000001000000100010000000000000000
"4,5-dimethyl-2-hexene",112.21504,564.74,0.328,383.15,CC(C)CC(C)CCCO,01000000000000000000000000010000010000011000000000000001000000000000000000000000100000010100001000010000000000000000000100000000
"4,5-dimethyl-3-ethyloctane",170.33844,642.97,0.491,472.15,CCC(C)CC(C)CCCO,01000000100000000000000000010000010000111000000000000000000000000000000000000000100000010100001000010000000000000000000100000000
"4,5-dimethyl-3-hexanol",130.23032,582.72,0.741,429.0,CC(C)CC(C)CC(C)O,01000000000000000100000000010000010000011000000000000001000000000000000000000000100000010000000000010000000000000000000000000000
"4,5-dimethyl-4-ethyloctane",170.33844,648.03,0.461,473.15,CCCC(C)(O)CC(C)CC,01000000100000000000000000111000010000110000000000000000010000000000000000000000100000010000000000000000000000000011100000000000
"4,5-dimethyl-cis-2-hexene",112.21504,562.01,0.317,383.15,CCCCC(C)CC(C)CCC,01000000000000000000000000110000010000101000000000000000000000000000000000000000100000010000000000010000000000000000000100000000
"4,5-dimethyl-trans-2-hexene",112.21504,562.01,0.317,383.15,CCCC(C)CC(C)CCC,01000000000000000000000000110000010000101000000000000000000000000000000000000000100000010000000000010000000000000000000000000000
"4,5-dimethyldecane",170.33844,643.43,0.519,475.15,Cc1ccc2nccc(C)c2c1,00000000000000000000000000000001010000000000100000000000001000000000000001100100010000100000000000001000000100010000000000100000
"4,5-dimethylnonane",156.31156,625.61,0.478,455.15,CC(C)CCC(C)CCCO,01000000000000000000000000010000010000010000000000000001000000000000000000000000100000010100001000010000000000000000000100000000
"4,5-dimethyloctane",142.28468,612.2,0.418,435.29,CCCC(C)(O)CCC(C)C,01000000100000000000000000111000010000110000000000000001000000000000000000000000100000000000000000010000000000000011100000000000
"4,5-dimethylquinoline",157.21508,773.01,0.497,538.0,CCCC(C)CCC(C)CCC,01000000000000000000000000110000010000100000000000000000000000000000000000000000100000010000000000010000000000000000000000000000
"4,6,6-trimethyl-2-heptanol",158.28408,622.25,0.757,466.0,Cc1ccnc2c(C)cccc12,00000000000000000000000000000000010000000000100000000000001010001000000000100100010000100000000000001000000000010000000000100000
"4,6-dimethyl-1-heptanol",144.2572,606.35,0.814,455.0,CC(C)CC(C)CCCO,01000000000000000000000000010000010000011000000000000001000000000000000000000000100000010100001000010000000000000000000100000000
"4,6-dimethyl-1-octanol",158.28408,638.34,0.852,485.0,CCC(C)(C)c1ccc(O)c(C)c1,00000000110000000000000000000000010000110000000000000000001000000010000100000000110000100000000000001000000100010010000000000000
"4,6-dimethyl-2-heptanol",144.2572,625.72,0.782,467.15,NCCCCO,00000000000000000001000000000000000000010000000010000000000000000000000000000000100001000100001000000000000000000000000100000000
"4,6-dimethyl-4-octanol",158.28408,616.49,0.788,464.0,CC(O)CCN,01000000000000000101000000010000010000010000000010000000000000000000000000000000100001000000000000010000000000000000000000000000
"4,6-dimethyldecane",170.33844,638.02,0.519,471.15,CC(O)CC(C)(C)N,01000000100000000101000000010000110100010000000000000000010000000000000000000000100000000000000000010000000000000010000000000000
"4,6-dimethylnonane",156.31156,621.49,0.478,452.15,CC(O)CCN,01000000000000000101000000010000010000010000000010000000000000000000000000000000100001000000000000010000000000000000000000000000
"4,6-dimethylquinoline",157.21508,783.28,0.497,545.15,BrCCC=C,00000000000000000100000000000000000000000000100000000010000000000000000000000000100000101000000000000000000001010000000000010000
"4,7-dimethyl-1-octanol",158.28408,638.34,0.852,485.0,CC(Br)CC=C,01000100000000000000000000010000010000000000100000000010000000100000000000000000100000101000000000000000001001000000000000000000
"4,7-dimethyl-4-octanol",158.28408,618.02,0.788,465.15,CC(=C)CCBr,00000000000000000000000000001000010000010000000000000000000000000000000000000000101000101000000000000000000000010000000001010010
"4,7-dimethyldecane",170.33844,639.37,0.519,472.15,CC=CC(C)Br,01000000000001000000000000010000010000000000000000000010000000100000000000001000100000001000000000000000000000000000000000000000
"4,8-dimethylquinoline",157.21508,784.5,0.497,546.0,CC(CBr)C=C,01000000000000000000000100010000010000000000000000000010100000000000000000000000100000101001000000000000000001000000000000010000
"4,cis-5-dimethylcyclohexene",110.19916,605.71,0.26,400.96,C\C=C/C(C)Br,01000000000001000000000000010000010000000000000000000010000000100000000000001000100000001000000000000000000000000000000000000000
"4,trans-5-dimethylcyclohexene",110.19916,597.92,0.26,395.8,C/C=C/C(C)Br,01000000000001000000000000010000010000000000000000000010000000100000000000001000100000001000000000000000000000000000000000000000
"4-(1,1-dimethylpropyl)-2-methylphenol",178.27432,755.67,0.59,533.15,CCCC(Br)CCC,01001000000000000000000000100000010000100000000000000000000000100000000000000000100000001000000000010000000000000000000000000000
4-amino-1-butanol,89.13748,571.82,0.711,478.15,CCCCc1ccc(N)cc1,00000000000000000001000000100000010000100000000001000000000000000000000000000000110000100011000000001000000000000000000110000000
4-amino-2-butanol,89.13748,571.82,0.711,426.84,CCCCc1ccc(O)cc1,00000000000000000000000000100000010000110000000000000000000000000010000000000000110000100011000000001000010000000000000100000000
4-amino-4-methyl-2-pentanol,117.19124,681.0,0.97,447.5,ClC[CH]=[C]=[CH2],00000000000000000001000000000000001000000000001000000010000000001000000000000000100011100000000001000000000000000000000000000000
4-aminobutan-2-ol,89.13748,571.82,0.711,426.84,ClCCC=C,00000000000000000101000000000000000000000000100010000010000000000000000000000000100001100000000000000000000001000000000000000000
4-bromo-1-butene,135.00358,571.36,0.323,371.95,CC(Cl)CC=C,01000100000000000011000000010000010000000000100000000010000000000000000000000000100000110000000000000000000001000000000000000000
4-bromo-1-pentene,149.03046,581.77,0.337,384.15,CC(Cl)CC(C)(C)C,01000000100000000011000000010000010000000000000000000000010000000000000000000000100000010000000000000100000000000010000000000000
4-bromo-2-methyl-1-butene,149.03046,569.33,0.341,376.52,CCC(Cl)C=CC,01000000100000000011000000000000010000100000000000000010000000000000000000001000100000001000000000000000000010000000000000000000
4-bromo-2-pentene,149.03046,586.22,0.334,391.15,CC(=C)CCCl,00000000000000000001000000001000010000010000000010000000000000000000000000000000101001100000000000000000000000000000000001000010
4-bromo-3-methyl-1-butene,149.03046,569.74,0.337,376.2,CCCCC(Cl)C=CC,01000000000000000011000000100000010000100000000000000010000000000000000000001000100000001000000000010000000010000000000100000000
4-bromo-cis-2-pentene,149.03046,592.38,0.326,389.65,CC=CC(C)Cl,01000000000100000011000000010000010000000000000000000010000000000000000000001000100000001000000000000000000000000000000000000000
4-bromo-trans-2-pentene,149.03046,592.38,0.326,389.65,CCCC(Cl)=CCC,00000000000010000001000000101000010000110000001000000010000000000000000000000000100000000000000100000000000000000000000000000000
4-bromoheptane,179.1001,651.0,0.444,434.15,CC(CCl)C=C,01000000000000000001000100010000010000000000000000000010100000000000000000000000100001100000000000000000000001000000010000000000
4-butylaniline,149.23584,690.0,0.69,534.15,[O-][N+](=O)c1cc(ccc1Cl)C(F)(F)F,00000000111000000001000000000000000000000101010001000000000000000000001000011000010000100000000000001000000100100110000000000000
4-butylphenol,150.22056,743.65,0.542,521.15,CCCC(C)(Cl)CCC,00000000100000000001000000101000010100100000000000000000000000000000000000000000100000000000000000000000000000000010000000000000
"4-chloro-1,2-butadiene",88.5364,525.0,0.193,361.15,CCCCC(C)(Cl)CCC,00000000100000000001000000101000010100100000000000000000000000000000000000000000100000000000000000000000000000000010000100000000
4-chloro-1-butene,90.55228,535.14,0.262,347.15,C\C=C/C(C)Cl,01000000000100000011000000010000010000000000000000000010000000000000000000001000100000001000000000000000000000000000000000000000
4-chloro-1-pentene,104.57916,562.47,0.277,370.15,C/C=C/C(C)Cl,01000000000100000011000000010000010000000000000000000010000000000000000000001000100000001000000000000000000000000000000000000000
"4-chloro-2,2-dimethylpentane",134.6488,621.08,0.418,401.15,CCCC(Cl)CCC,01000000000000000011000000100000010000100000000000000000000000000000000000000000100000000000000000010000000000000010000000000000
4-chloro-2-hexene,118.60604,583.61,0.341,396.15,CCCCCCC(O)CCC,01000000000000000000000000100000010000110000000000000000000000000000000000000000100000000000000000010000000000000000001100000000
4-chloro-2-methyl-1-butene,104.57916,569.17,0.281,375.15,CCCCCCC(=O)CCC,00000000001000000000000010101000010000110000000000000000000000000000000000000000100000000000000000000000000000000000000100000100
4-chloro-2-octene,146.6598,640.48,0.43,426.15,CCCCCC=CCCC,00000000000000000100000000100000010000100000000000000010000000000000000000001000100000000000000000000000000000000000000100000000
4-chloro-2-pentene,104.57916,561.69,0.275,376.15,CCCCCC#CCCC,00000000000000000000000100100100011000100000000000000000000000000000000000000000100000000000000000000000000000000000000100000000
4-chloro-3-heptene,132.63292,613.52,0.385,412.15,CCCCCCCCC(=O)CCC,00000000001000000000000010101000010000110000000000000000000000000000000000000000100000000000000000000000000000000000000100000100
4-chloro-3-methyl-1-butene,104.57916,554.87,0.277,365.15,Cc1ccc(C=C)cc1C,00000000000000000000000000000000010000000000000000000010001000000000000000000000010000100000000000011000000101010100000000000000
4-chloro-3-nitrobenzotrifluoride,225.5542696,686.0,0.607,495.15,CCc1ccc(SC)cc1,00000001001000000000000000000000010000100001000000000000000100000000000000000000110000100010000000001000000000000000100000000000
4-chloro-4-methylheptane,148.67568,642.41,0.462,442.45,CCC(CC)CCCO,01000000100010000000000000000000010000110000000000000000000000000000000000000000100000000100001000010000000000000000000100000000
4-chloro-4-methyloctane,162.70256,661.88,0.505,470.76,CCC(CC)CC=C,01000100100010000000000000000000010000100000100000000010000000000000000000000000100000100000000000000000000001000000000000000000
4-chloro-cis-2-pentene,104.57916,564.66,0.267,370.15,CCCCC(CC)CCC(C)N,01000000100010000011000000110000010000100000000000000001000000000000000000000000100000000000000000010000000000000000000100000000
4-chloro-trans-2-pentene,104.57916,564.66,0.267,370.15,CCC(CC)CC(C)(C)C,01000000100010000000000000000000010000100000000000000000010000000000000000000000100000000000000000000100000000000010000000000000
4-chloroheptane,134.6488,621.08,0.418,417.15,CCC(CC)C(C)C(C)C,01000000100000000000000000010000010000100000000000000000000000000000000000000000101000000000000000000100000001000000000000000000
4-decanol,158.28408,633.05,0.883,483.15,CCC(C)(CC)CC(C)C,01000000100001000000000000010000010000110000000000000001010000000000000000000000100000000000000000000000000000000010000000000000
4-decanone,156.2682,656.59,0.612,479.65,CCC(CC)CC(C)O,01000000100010000100000000010000010000111000000000000000000000000000000000000000100000000000000000010000000000000000000000000000
4-decene,140.2688,616.98,0.457,443.75,CCCC(CC)CC(C)C,01000000100010000000000000110000010000101000000000000001000000000000000000000000100000000000000000010000000000000000000000000000
4-decyne,138.25292,642.22,0.417,443.65,CCC(CC)CC(C)C,01000000100010000000000000010000010000101000000000000001000000000000000000000000100000000000000000000000000000000000000000000000
4-dodecanone,184.32196,687.46,0.691,519.25,CCc1ccnc(C)c1,00000001000000000000000000000000010000100000100000000000001000000001000000100000110000100010000000001000000100000000000000100000
"4-ethenyl-1,2-dimethylbenzene",132.20528,679.34,0.375,465.57,CCC(CC)C(C)(C)CC,01000000100000000000000000000000110000110000100000000000000000000000000000000000100000000000000000000000000000000010000000000000
4-ethyl-(1-thiaethyl)-benzene,152.26028,737.59,0.416,505.76,CCC(O)C(CC)CC,01000000100000000000000000000000010000110000000000000000000000000000000000000000101000000000000000010000000000000000000010000000
4-ethyl-1-hexanol,130.23032,608.64,0.806,453.0,CCCC(CC)C(C)CC,01000000100000000000000000110000010000100000000000000000000000000000000000000000101000000000000000010000000000000000000001000000
4-ethyl-1-hexene,112.21504,555.81,0.357,383.15,CCCC(O)(CC)CCC,00000000100000000000000000101000010000110000000000000000000000000000000000000000100000000000000000000000000000000010100000000000