name,molweight,critical temperature (K),acentric factor,boiling point (K),SMILES,ECFP_Bits
"2-methylheptyl acetate, (±)",172.2676,650.6,0.574,468.15,CCCCCCC(C)C,01000000000000000000000000110000010000100000000000000001000000000000000000000000100000000000000000010000000000000000000100000000
2-methylhexadecane,240.47284,726.23,0.708,570.15,CCCCCCC(C)C(O)=O,01000100001000000000000000110000010000110000000000001000000000000000000000000000100000000000000010010000000000000000000100000100
2-methylhexanal,114.18756,593.0,0.464,416.0,CCCCCCCCCCCCCC(C)C,01000000000000000000000000110000010000100000000000000001000000000000000000000000100000000000000000010000000000000000000100000000
2-methylhexane,100.20404,530.4,0.328,363.2,CCCC(C)C=O,01000000001000000000000100110000010000100000000000000010000000000000000000000000100000000000000000010000000010000000000000001000
2-methylhexanoic acid,130.18696,666.0,0.696,483.0,CCCC(C)C,01000000000000000000000000110000010000100000000000000001000000000000000000000000100000000000000000010000000000000000000000000000
"2-methylhexanoic acid, (±)",130.18696,680.0,0.717,488.65,CCCC(C)C#N,01000000000000000000001000110000011000100000000000000000000000000000000000000000100000000100000000010000100000000000000000000000
2-methylindene,130.1894,711.0,0.351,479.45,CC1=CC2=CC=CC=C2C1,00000000000000000000000000001010010000001000000000000000001100001000000000000000010010100000000000001000000000000000000000000000
2-methylnaphthalene,142.2004,761.0,0.378,514.26,Cc1ccccn1,00000000000000000000000000000000010000000000100000000000001000001001000000100000010000100000000000001000000000000000000000100000
2-methylnonadecane,282.55348,763.21,0.748,612.15,Cc1[nH]ccc1,00000000000000000000000000000000010000100000000000000000001100001000000000000000010000100010000000101000000000000000000000000000
2-methylnonane,142.28468,610.0,0.472,440.15,Cc1ccc2ccccc2n1,00000000000000000000000000000000010000000000000000000000001000011001000001000000010000100000000000001000000000000000000000100000
2-methyloctadecane,268.5266,751.64,0.741,599.15,CCCCCCCCCCCCC(C)C,01000000000000000000000000110000010000100000000000000001000000000000000000000000100000000000000000010000000000000000000100000000
2-methyloctanal,142.24132,640.0,0.592,456.62,CC1CCCO1,00001000000000001000000000000110011000000000010000000010000000000000000000000010000000000000000000000000000000000000000000010000
2-methyloctane,128.2578,582.8,0.458,416.43,CC1CCCCS1,00001000000000000000010000000110010100000000010000000000000000000000000000000000000000000000000000000010000100000000000000010000
2-methyloctanoic acid,158.24072,694.0,0.791,518.15,CC1CCCS1,00001000000000000000010000000110010100000000010000000000000000000000000000000000000000000000000000000010000100000000000000010000
2-methylpentadecane,226.44596,713.05,0.683,554.75,CC1CS1,00000000000000000000000000000110010110000000000000000000000000000000000000000000000000000000000000000010000100000000000000010000
2-methylpentanal,100.16068,569.05,0.433,390.15,Cc1sccc1,00000000000000100000000000000001010100000000000000000000001000001000000000000000010000100000000000001000000000000000000000000000
2-methylpentane,86.17716,497.7,0.279,333.41,CCCCCCCCCCCCCCCCCCCCCC(C)C,01000000000000000000000000110000010000100000000000000001000000000000000000000000100000000000000000010000000000000000000100000000
2-methylpentanenitrile,97.16008,605.44,0.442,420.15,CCCCCCCCCCCC(C)C,01000000000000000000000000110000010000100000000000000001000000000000000000000000100000000000000000010000000000000000000100000000
"2-methylpentanoic acid, (±)",116.16008,661.0,0.652,468.75,CCCCCCCCCC(C)C=O,01000000001000000000000100110000010000100000000000000010000000000000000000000000100000000000000000010000000010000000000100001000
2-methylpyridine,93.12832,621.0,0.299,402.55,CCCCCCCCCC(C)C,01000000000000000000000000110000010000100000000000000001000000000000000000000000100000000000000000010000000000000000000100000000
2-methylpyrrole,81.11732,610.0,0.213,420.75,CCCC(C)C(O)=O,01000100001000000000000000110000010000110000000000001000000000000000000000000000100000000000000010010000000000000000000000000100
2-methylquinoline,143.1882,769.0,0.359,520.91,CC(C)C(C)(C)[N+]([O-])=O,01000000101000000000000000010000010000000001000000000000000000000000001000010000000000000000000000000101000000000110000000000000
2-methyltetradecane,212.41908,698.98,0.654,538.35,CCCC(C)(C)[N+]([O-])=O,00000000101000000000000000101000010000100001000000000000000000000000001000010000100000000000000000000100000000000110100000000000
2-methyltetrahydrofuran,86.1338,537.0,0.3,353.37,CC(C)(C)[N+]([O-])=O,00000000101000000000000000000000010000000001000000000000000000000000001000010000000000000000000100000100000000000110000000000000
2-methylthiacyclohexane,116.22728,660.59,0.244,426.19,CC([N+]([O-])=O)C(C)(C)C,01000000101000000000000000010000010000000001000000000000000000100000001000010000100000000000000000000000000001000110000000000000
2-methylthiacyclopentane,102.2004,637.0,0.229,405.63,CCC(C)C(C)[N+]([O-])=O,01000000101000000000000000010000010000100001000000000000000000000000001000010000100000000000000000000000000000000100000001000000
2-methylthiacyclopropane,74.14664,561.1,0.201,347.55,CC(C)CC(C)[N+]([O-])=O,01000000001000000000000000010000010000001001000000100001000000000000001000010000100000000000000000000000000000000100000000000000
2-methylthiophene,98.16864,609.0,0.239,385.71,[O-][N+](=O)c1ccccc1Nc2ccccc2,10000000001000000000000000000000000000000001000000000000000000011000001010011000010000100000000000001000000100000100000000000000
2-methyltricosane,338.661,814.95,0.71,664.45,CCC(C)[N+]([O-])=O,01000000101000000000000000010000010000100001000000100000000000000000001000010000100000000000000000000000000000000100000000000000
2-methyltridecane,198.3922,684.08,0.622,521.05,CCCCCCCCCCCC(C)C,01000000000000000000000000110000010000100000000000000001000000000000000000000000100000000000000000010000000000000000000100000000
2-methylundecanal,184.32196,685.0,0.754,519.25,CCCCC(C)[N+]([O-])=O,01000000001000000000000000110000010000100001000000100000000000000000001000010000100000000000000000010000000000000100000100000000
2-methylundecane,170.33844,650.71,0.548,484.0,CCCCCCCCCC(C)C,01000000000000000000000000110000010000100000000000000001000000000000000000000000100000000000000000010000000000000000000100000000
2-methylvaleric acid,116.16008,661.0,0.652,435.4,CC(C)[N+]([O-])=O,01000000001000000000000000010000010000000001000000000000000000000001001000010000100000000000000000000000000000000100000000000000
"2-nitro-2,3-dimethylbutane",131.17476,642.93,0.427,442.15,CCCCCCCCCCCCCCCCCC(C)S,01000000000000000000000000110000010000100000000000000000000000000000000000000000110000000000000000010100000010000000000100000000
2-nitro-2-methylpentane,131.17476,643.67,0.458,446.0,CCCCCCCCCCCCCCCCCC(C)O,01000000000000000100000000110000010000110000000000000000000000000000000000000000100000000000000000010000000000000000000100000000
2-nitro-2-methylpropane,103.121,592.0,0.383,400.31,CCCCCCCCCCCCCCCCCC(C)=O,00000000001000100000000000101000010000110000000000000000000000000000000000000000100000000000000000000000000000000000000101000100
"2-nitro-3,3-dimethylbutane",131.17476,634.21,0.427,436.15,CCCCCCCCCCCCCCCCC#CC,00000000000000000000000100100100011000100000000000000000000000000000000000000000100000000000000100000000000000000000000110000000
2-nitro-3-methylpentane,131.17476,634.96,0.491,443.15,CCCCCCCC(C)S,01000000000000000000000000110000010000100000000000000000000000000000000000000000110000000000000000010100000010000000000100000000
2-nitro-4-methylpentane,131.17476,634.74,0.491,443.0,CCCCCCCC(C)O,01000000000000000100000000110000010000110000000000000000000000000000000000000000100000000000000000010000000000000000000100000000
2-nitro-N-phenylaniline,214.22368,835.0,0.767,616.0,C1=CC=C(C=C1)NC2=CC=CC=C2[N+](=O)[O-],10000000001000000000000000000000000000000001000000000000000000011000001010011000010000100000000000001000000100000100000000000000
2-nitrobutane,103.121,615.0,0.357,412.85,CCCCCCCC(C)=O,00000000001000100000000000101000010000110000000000000000000000000000000000000000100000000000000000000000000000000000000101000100
"2-nitrobutane, (±)",103.121,610.0,0.402,413.15,CCCCCCCCCC1CCc2ccccc2C1,00000000000000000000000000100110010000100000010000000000000000001000000000100000110010100000000000001001000000000000000100010000
2-nitrohexane,131.17476,639.0,0.523,449.15,CCCCCCCCCc1ccc2ccccc2c1,00000000000000000000000000100000010000100000000000000000000000011000000000000000110000100011000000001000000100000000000100000000
"2-nitrooctane, (±)",159.22852,690.75,0.643,480.78,CCCCCCC#CC,00000000000000000000000100100100011000100000000000000000000000000000000000000000100000000000000100000000000000000000000110000000
2-nitropropane,89.09412,594.0,0.384,393.4,C1CC2CC1C=C2,00000000000010000000000000000010000000000000010000000000000100000000000000000000010000000000000000010000000000000000000000010000
2-nonadecanethiol,300.5926,795.0,0.826,639.15,CCCCCCCCCCCCCCCCC(C)S,01000000000000000000000000110000010000100000000000000000000000000000000000000000110000000000000000010100000010000000000100000000
2-nonadecanol,284.526,782.8,0.872,627.15,CCCCCCCCCCCCCCCCC(C)O,01000000000000000100000000110000010000110000000000000000000000000000000000000000100000000000000000010000000000000000000100000000
2-nonadecanone,282.51012,766.51,0.843,616.15,CCCCCCCCCCCCCCCCC(C)=O,00000000001000100000000000101000010000110000000000000000000000000000000000000000100000000000000000000000000000000000000101000100
2-nonadecyne,264.49484,775.87,0.728,612.15,CCCCCCCCCCCCCCCC#CC,00000000000000000000000100100100011000100000000000000000000000000000000000000000100000000000000100000000000000000000000110000000
2-nonanethiol,160.3238,672.0,0.473,481.35,CCCCCCCC(C)S,01000000000000000000000000110000010000100000000000000000000000000000000000000000110000000000000000010100000010000000000100000000
2-nonanol,144.2572,649.6,0.595,471.65,CCCCCCC(C)S,01000000000000000000000000110000010000100000000000000000000000000000000000000000110000000000000000010100000010000000000100000000
2-nonanone,142.24132,652.5,0.498,467.15,CCCCCCC(C)O,01000000000000000100000000110000010000110000000000000000000000000000000000000000100000000000000000010000000000000000000100000000
2-nonylnaphthalene,254.41544,834.22,0.732,642.15,CCCCCCC(C)=O,00000000001000100000000000101000010000110000000000000000000000000000000000000000100000000000000000000000000000000000000101000100
2-nonyne,124.22604,630.31,0.368,435.05,CCCCCCC(C)I,01000000000000001000010000110000010000100000000000000010000000000000000000000000100000000000000000010000000000000000000100000000
2-norbornene,94.1564,583.0,0.159,368.65,CCCCCCCCCCC(CO)CCCCCCCC,01000000000010000000000000100000010000110000000000000000000000000000000000000000100000000000001000110000000000000000000100000000
2-octadecanethiol,286.56572,787.0,0.811,627.15,CCCCCCCCC1CCc2ccccc2C1,00000000000000000000000000100110010000100000010000000000000000001000000000100000110010100000000000001001000000000000000100010000
2-octadecanol,270.49912,773.9,0.832,614.15,CCCCCCCCC(CCCCCCCC)C(O)=O,01000100001000000000000000100000010000110000000000001000000000000000000000000000100001000000000000010000000000000000000100000100
2-octadecanone,268.48324,758.47,0.838,606.15,CCCCCCCCc1ccc2ccccc2c1,00000000000000000000000000100000010000100000000000000000000000011000000000000000110000100011000000001000000100000000000100000000
2-octadecyne,250.46796,764.58,0.707,598.15,CCCCCC#CC,00000000000000000000000100100100011000100000000000000000000000000000000000000000100000000000000100000000000000000000000110000000
"2-octanamine, (±)",129.2456,601.45,0.5,437.15,C1COC(C1)C2CCCO2,00001000000000001000000000010010001000000000010000000010000000000000000000000000000000000000000000000000000000000000000000010000
2-octanethiol,146.29692,653.0,0.423,459.55,CCCCCCCCCCCCCC(C)S,01000000000000000000000000110000010000100000000000000000000000000000000000000000110000000000000000010100000010000000000100000000
"2-octanethiol, (±)",146.29692,648.0,0.401,459.55,CCCCCCCCCCCCCC(C)O,01000000000000000100000000110000010000110000000000000000000000000000000000000000100000000000000000010000000000000000000100000000
2-octanol,130.23032,629.6,0.584,452.95,CCCCCCCCCCCCCC(C)=O,00000000001000100000000000101000010000110000000000000000000000000000000000000000100000000000000000000000000000000000000101000100
"2-octanol, (±)",130.23032,600.92,0.733,453.15,CCCCCCCCCCCCC#CC,00000000000000000000000100100100011000100000000000000000000000000000000000000000100000000000000100000000000000000000000110000000
2-octanone,128.21444,632.7,0.455,446.15,CCCC(C)S,01000000000000000000000000110000010000100000000000000000000000000000000000000000110000000000000000010100000010000000000000000000
2-octyl iodide,240.12745,665.98,0.857,490.71,CCCCCCC(C)I,01000000000000001000010000110000010000100000000000000010000000000000000000000000100000000000000000010000000000000000000100000000
2-octyl-1-dodecanol,298.55288,791.6,0.918,619.43,CCCCCC1CCc2ccccc2C1,00000000000000000000000000100110010000100000010000000000000000001000000000100000110010100000000000001001000000000000000100010000
"2-octyl-[1,2,3,4-tetrahydronaphthalene]",244.42032,802.56,0.669,612.15,CCCCCc1ccc2ccccc2c1,00000000000000000000000000100000010000100000000000000000000000011000000000000000110000100011000000001000000100000000000100000000
2-octyldecanoic acid,284.48264,799.0,1.084,665.1,CCC#CC,00000000000000000000000100000000011100100000000000000000000000000000000000000000100000000000000100000000000000000000000010000000
2-octylnaphthalene,240.38856,825.21,0.699,628.15,CC(CO)c1ccccc1,01000000000000000000000000010000010000010000000000000000000000001000000000000000110001100000001000101000000000000000001000000000
2-octyne,110.19916,607.45,0.324,410.88,CCC(C)(C)c1ccccc1,00000000110000000000000000000000010000110000000000000000001000001000000000000000110000100000000000001000000000000010000000000000
2-oxolan-2-yloxolane,142.19796,738.0,0.372,497.0,CC(C)(O)c1ccccc1,00000000110000000000000000000000010000010000000000000000000000001000000000000000010000100000000000001000000001000010100000000000
2-pentadecanethiol,244.48508,757.0,0.727,586.15,CC(C)C(C)c1ccccc1,01000000000000000000000000010000010000000000100000000000000000001000000000000000010001100000000000001000000001000000000000000000
2-pentadecanol,228.41848,743.2,0.728,572.15,SCCc1ccccc1,00000000000010000000000000000000000000000000000000010000000000001000000000000000110000100011000000001100000000000000000000000000
2-pentadecanone,226.4026,723.72,0.787,565.15,OCCc1ccccc1,00000000000000000000000000000000000000010000000000000000000000001000000000000000110000100111001000001000000000000000000000000000
2-pentadecyne,208.38732,729.7,0.616,553.15,CCCC(C)c1ccccc1,01000000000000000000000000110000010000100000000000000000000000001000000000000000110001100000000000011000000000000000001000000000
2-pentanethiol,104.21628,580.0,0.302,385.55,CC=Cc1ccccc1,00000000000000000000000000000000010000000000000000000010000000001001000000001000110000100000000000001000000000000100000000000000
2-pentene; (cis+trans),70.1344,467.08,0.241,306.7,CCCCCC(CO)CCC,01000000000010000000000000100000010000110000000000000000000000000000000000000000100000000000001000110000000000000000000100000000
"2-pentyl-[1,2,3,4-tetrahydronaphthalene]",202.33968,774.92,0.554,568.15,CCCCC(CO)CCC,01000000000010000000000000100000010000110000000000000000000000000000000000000000100000000000001000110000000000000000000100000000
2-pentylnaphthalene,198.30792,797.48,0.575,583.16,CCCC(CO)CCC,01000000000010000000000000100000010000110000000000000000000000000000000000000000100000000000001000110000000000000000000000000000
2-pentyne,68.11852,519.0,0.175,329.27,CCCC(=C)CCC,00000000000000000000000000101000010000110000000000000000000000000000000000000000100010100000000000000000000000000000000000000010
2-phenyl-1-propanol,136.19368,685.0,0.764,497.65,CCCC1=Cc2ccccc2C1,00000000000000000000000000101010010000101000000000000000000000001000000000000000110010100001000000001000000000000000000000010000
2-phenyl-2-methylbutane,148.24804,676.93,0.351,465.53,CCCC1CCc2ccccc2C1,00000000000000000000000000100110010000100000010000000000000000001000000000100000110010100000000000001001000000000000000000010000
2-phenyl-2-propanol,136.19368,660.0,0.698,475.15,CCCc1ccccc1N,00000000000000100001000000100000010000100000000001000000000000001000010000000000110000100001000000001000000000000000000000000000
2-phenyl-3-methylbutane,148.24804,665.6,0.383,461.15,CCCc1ccc2ccccc2c1,00000000000000000000000000100000010000100000000000000000000000011000000000000000110000100011000000001000000100000000000000000000
2-phenylethanethiol,138.2334,725.28,0.374,490.65,CCCC(CCC)C=O,01000000001000000000000000100000011000100000000000000010000000000000000000000000100000000000000000010000000010000000000000001000
2-phenylethanol,122.1668,684.0,0.743,492.05,CCCC(CCC)C(O)=O,01000100001000000000000000100000010000110000000000001000000000000000000000000000100001000000000000010000000000000000000000000100
2-phenylpentane,148.24804,663.62,0.413,463.15,CCCc1ccccc1O,00000000000000000000000000100000010000110000000000000000000000001010010100000000110000100001000000001000000000000000000000000000
2-propenylbenzene,118.1784,640.92,0.332,428.95,CCCc1ccccn1,00000000000000000000000000100000010000100000100000000000000000001000000000100000110010100001000000001000000000000000000000100000
2-propyl-1-heptanol,158.28408,643.4,0.883,491.05,CCCc1sccc1,00000000000000101000000000100001010100100000000000000000000000001000000000000000110000100001000000001000000000000000000000000000
2-propyl-1-hexanol,144.2572,612.65,0.846,462.0,O=C1CCCN1,00001000001000000000000000000010000000010000000001000000001000000000000000100000000000000010000000001000000000000000000000000000
2-propyl-1-pentanol,130.23032,607.5,0.806,452.15,CCCC(C)c1ccccc1O,01000000000000000000000000110000010000110000000000000000000000001010000100000000110000100000000000011000000001000000001000000000
2-propyl-1-pentene,112.21504,566.22,0.361,390.85,CCC(C)c1cccc(C(C)C)c1O,01000000100000000000000000010000010000110000000000000000000000001010000000100000110000100000000000001000000001000000001000000000
2-propyl-1H-indene,158.24316,726.0,0.441,510.46,CCC(C)c1ccccc1N,01000000100000100001000000010000010000100000000001000000000000001000000000000000110000100000000000001000000001000000001000000000
"2-propyl-[1,2,3,4-tetrahydronaphthalene]",174.28592,752.45,0.468,534.15,CCC(C)c1ccc2ccccc2c1,01000000100000000000000000010000010000100000000000000000000000011000000000000000110001100000000000001000000100000000001000000000
2-propylaniline,135.20896,705.58,0.413,499.15,CCC(C)c1ccccc1O,01000000100000000000000000010000010000110000000000000000000000001010000100000000110000100000000000001000000001000000001000000000
2-propylnaphthalene,170.25416,772.44,0.488,546.66,Cc1cc(O)c(cc1C)C(C)(C)C,00000000100000000000000000000000010100010000000000000000001100000010000100000000010000000000000000001000000100010010000000000000
2-propylpentanal,128.21444,614.0,0.534,433.15,Cc1cc(C)c(O)c(c1)C(C)(C)C,00000000100000000000000000000001010100010000000000000000001100000010000000100000010000000000000000001000000100010010000000000000
2-propylpentanoic acid,144.21384,692.0,0.779,494.15,CCc1ccc(O)c(c1)C(C)(C)C,00000001100000000000000000000000010100110000000000000000000100000010000100000000110000100010000000001000000100000010000000000000
2-propylphenol,136.19368,716.37,0.496,492.55,Cc1ccc(O)c(c1)C(C)(C)C,00000000100000000000000000000001010100010000000000000000001100000010000100000000010000100000000000001000000100000010000000000000
2-propylpyridine,121.18208,653.0,0.376,440.15,Cc1ccc(c(O)c1)C(C)(C)C,00000000100000000000000000000001010100010000000000000000001100000010000100000000010000100000000000001000000100000010000000000000
2-propylthiophene,126.2224,649.23,0.342,431.65,Cc1cccc(c1O)C(C)(C)C,00000000100000000000000000000000010100010000000000000000001100001010000000100000010000100000000000001000000000010010000000000000