name,molweight,critical temperature (K),acentric factor,boiling point (K),SMILES,ECFP_Bits
cis-2-decene,140.2688,621.0,0.475,447.0,C/C=C/C=O,00000000001000000000000000000000010000000000000010000010000000000000000000001000100000000000100000000000000010000000000000000000
cis-2-dodecene,168.32256,663.0,0.569,491.0,C/C=C/C(O)=O,00000100001000000000000000000001010000010000000000000010000000000000000000001000100000000000000000000000000000000000000000000100
cis-2-fluoro-2-butene,74.0979832,467.83,0.227,300.15,CC(C)c1ccccc1,01000000000000000000000000010000010000000000000000000000000000001000000000000000010001100000000000001000000000000000000000000000
cis-2-heptene,98.18816,549.0,0.294,371.56,CC(C)c1ccccc1.O[O-],01000000000000000000000000010000010000010000000000000000000000001000000000010000010001100100000000001000000000000000000000000000
cis-2-hexene,84.16128,513.0,0.272,342.03,N#CC#N,00100000000000000000001000000000001000000000000000000000000000000000000000000000000000000000000000000000100000000000000000000000
cis-2-methyl-2-butenoic acid,100.11732,676.0,0.389,458.15,N#CC#N,00100000000000000000001000000000001000000000000000000000000000000000000000000000000000000000000000000000100000000000000000000000
cis-2-methylcyclohexanol,114.18756,614.0,0.681,438.15,BrC#N,01000000000000000000001000000000001000010000000000000000000000000000000000000000000000001000000000000000100000000000000000000000
cis-2-methylcyclohexylamine,113.20284,622.0,0.386,426.65,ClC#N,00000000000000000001001000000000001000000000001000000000000000000000000000000000000000000000000000000000100000000001000000000000
cis-2-octene,112.21504,572.0,0.389,398.79,ClC#N,00000000000000000001001000000000001000000000001000000000000000000000000000000000000000000000000000000000100000000001000000000000
cis-2-pentene,70.1344,475.93,0.241,310.08,FC#N,00000000100000000000001000000000001000000000000000000000000000000000000000000000000000000000000000000000100000000000000000010100
cis-2-pentenoic acid,100.11732,676.0,0.415,458.15,NC(=N)NC#N,10000000000010000001001000000000001000010001000000000100000000100000000000000000100000000000000000000000100000010000000000000000
cis-2-undecene,154.29568,637.84,0.504,469.25,C1CCC1,00001000000000000000000000000010000000000000000000000000000000000000000000000000000000000000000000000000000000000000000000000000
cis-3-chloro-3-hexene,118.60604,583.61,0.341,390.15,C1CC=C1,00000000000000000000000000000010000000000000000000000000000000000000000000000000010000000000000000000000100000000000000000010000
cis-3-heptene,98.18816,545.0,0.295,368.9,C1CCCCCCCCC1,00001000000000000000000000000010000000000000000000000000000000000000000000000000000000000000000000000000000000000000000000000000
cis-3-hexene,84.16128,509.0,0.279,339.6,C1CCCCCCCCCCC1,00001000000000000000000000000010000000000000000000000000000000000000000000000000000000000000000000000000000000000000000000000000
cis-3-hexenyl formate,128.17108,592.33,0.432,447.69,C1CCCCCCCCCCCCCCCCCCC1,00001000000000000000000000000010000000000000000000000000000000000000000000000000000000000000000000000000000000000000000000000000
cis-3-methylcyclohexanol,114.18756,625.0,0.694,446.15,C1CCCCCCCCCCCCCCCC1,00001000000000000000000000000010000000000000000000000000000000000000000000000000000000000000000000000000000000000000000000000000
cis-3-methylcyclohexylamine,113.20284,622.0,0.386,426.15,C1CCCCCC1,00001000000000000000000000000010000000000000000000000000000000000000000000000000000000000000000000000000000000000000000000000000
cis-3-nonen-1-ol,142.24132,629.65,0.541,456.62,C1CCC=CCC1,00001000000000000000000000000010000000000000000000000000000000000000000000000000010000000000000000000000100000000000000000010000
cis-3-octene,112.21504,569.0,0.38,396.05,C1CCCCCCCCCCCCCCC1,00001000000000000000000000000010000000000000000000000000000000000000000000000000000000000000000000000000000000000000000000000000
cis-3-penten-1-yne,66.10264,505.0,0.189,317.75,C1CCCCC1,00001000000000000000000000000010000000000000000000000000000000000000000000000000000000000000000000000000000000000000000000000000
cis-3-pentenoic acid,100.11732,676.0,0.415,466.15,NCC1CCCCC1,00001000000000000001000000000110000000000000010000000000000000000000000000000000100001000000000000000000000000000000000000010001
cis-4-chloro-4-octene,146.6598,640.48,0.43,438.45,SC1CCCCC1,00001000000000000000000000000010000000000000010000000000000000000000000000000000000010000000000000000110000000000000000000010000
cis-4-methylcyclohexanol,114.18756,622.0,0.688,444.15,OC1CCCCC1,00001000000000000000000000000010000000010000010000000000000000000000000000000010000000000000000000000000010000000000000000010000
cis-4-methylcyclohexylamine,113.20284,622.0,0.386,426.65,O=C1CCCCC1,00001000001000000000000000000010000000000000000000000000001000000000000000100000000000000000000001001000000000000000000000000000
cis-4-octene,112.21504,568.0,0.385,395.69,ON=C1CCCCC1,00001000000000000000000000000010001000010000000000000000000000000000000000100000000001010000000000001000000000000000000000000000
cis-4-undecene,154.29568,637.84,0.504,465.75,C1CCC=CC1,00001000000000000000000000000010000000000000000000000000000000000000000000000000010000000000000000000000100000000000000000010000
cis-5-decene,140.2688,616.98,0.457,444.15,CC(=O)OC1CCCCC1,00001000001100000000000000000010010000010000010000000001000000000000000000000000000000000000000000000010000000000000000101010100
cis-5-undecene,154.29568,637.84,0.504,465.45,O=COC1CCCCC1,00001000101000000000000000000011000000000000010000000011000000000000000000000000000000000000000000000000000010000000000100010000
cis-9-tricosene,322.61824,802.72,0.742,612.15,O=C=NC1CCCCC1,00001000001000000001000000010010001000000000010000000000000000000000000000000000000001000000000000000000000000000000000010010000
cis-crotonaldehyde,70.09104,554.0,0.324,361.87,C1CCC(CC1)OOC2CCCCC2,00001000000000000000000000000010000000000000010000000001000000000000000000100000000000000000000000000000000000000000000100010000
cis-crotonitrile,67.09044,568.0,0.279,380.6,NC1CCCCC1,00001000000000000001000000000110000000001000010000000000000000000000000000000000000000000000000000000000000000000000000000010000
cis-decahydronaphthalene,138.25292,703.6,0.279,468.97,C1CCC(CC1)c2ccccc2,00001000000000000000000000000010000000000000010000000000000000001000000000000000110000100000000000001000000000000000000000010001
cis-dicyano-1-butene,106.12712,796.0,0.664,577.0,C1CCCCCCCCCCCCCCCCCC1,00001000000000000000000000000010000000000000000000000000000000000000000000000000000000000000000000000000000000000000000000000000
cis-stilbene,180.24928,784.0,0.476,554.0,C1CCCCCCCC1,00001000000000000000000000000010000000000000000000000000000000000000000000000000000000000000000000000000000000000000000000000000
citraconic acid,130.10024,829.0,0.927,607.0,C1CCCCCCCCCCCCCCCCC1,00001000000000000000000000000010000000000000000000000000000000000000000000000000000000000000000000000000000000000000000000000000
"citronellol, (±)",156.2682,656.59,0.612,497.15,C1CCCCCCC1,00001000000000000000000000000010000000000000000000000000000000000000000000000000000000000000000000000000000000000000000000000000
cobalt nitrosyl tricarbonyl,172.97054,567.68,0.178,320.0,C1CCCCCCCCCCCCCC1,00001000000000000000000000000010000000000000000000000000000000000000000000000000000000000000000000000000000000000000000000000000
cresol mixture,108.13992,702.68,0.465,470.15,C1CCCC1,00001000000000000000000000000010000000000000000000000000000000000000000000000000000000000000000000000000000000000000000000000000
crotonaldehyde,70.09104,550.5,0.296,377.15,OC(=O)CC1CCCC1,00001100001000000000000000000110000000010000010000000000000000000000000001000000100000000000000000000000000010000000000000010100
crotonic acid,86.09044,656.42,0.5,460.15,SC1CCCC1,00001000000000000000000000000010000000000000010000000000000000000000000000000000000010000000000000000110000000000000000000010000
cumene,120.19428,631.0,0.327,425.56,O=C1CCCC1,00001000001000000000000000000010000000000000000000000000001000000000000000100000000000000000000001001000000000000000000000000000
cumene hydroperoxide,152.19308,605.0,0.995,442.7,C1CC=CC1,00001000000000000000000000000010000000000000000000000000000000000000000000000000010000000000000000000000100000000000000000010000
cyanogen,52.03548,399.9,0.312,252.05,C1CCCCCCCCCCCCC1,00001000000000000000000000000010000000000000000000000000000000000000000000000000000000000000000000000000000000000000000000000000
cyanogen,52.03548,400.15,0.279,252.0,C1CCCCCCCCCCCC1,00001000000000000000000000000010000000000000000000000000000000000000000000000000000000000000000000000000000000000000000000000000
cyanogen bromide,105.92174,545.03,0.254,334.65,C1CCCCCCCCCC1,00001000000000000000000000000010000000000000000000000000000000000000000000000000000000000000000000000000000000000000000000000000
cyanogen chloride,61.47044,449.0,0.32,286.0,CC(C)c1ccc(C)cc1,01000000000000000000000000010001010000000000000000000000001000000000000000000000010001100000000000001000000000000000000000000000
cyanogen chloride,61.47044,449.0,0.32,286.0,C(#N)Cl,00000000000000000001001000000000001000000000001000000000000000000000000000000000000000000000000000000000100000000001000000000000
cyanogen fluoride,45.0161432,368.51,0.303,227.15,FC(F)(F)C(F)(F)C(F)(F)C(F)(F)F,00000000100000000000000000000000000000000000010000000000000100000000000000000000000000000000000000000000000000000010001000000000
cyanoguanidine,84.08072,834.0,0.692,581.0,C(#N)N=C(N)N,00000000000010000001001000000000001000010000000000000000000000000000000000000000000001000000000100000010100000000000000000000000
cyclobutane,56.10752,459.93,0.185,285.66,C[Si]1(C)O[Si](C)(C)O[Si](C)(C)O[Si](C)(C)O[Si](C)(C)O1,00000000000000001000000100000000010000000000000000000000100000100000000000000000000000000000000000100000000000000000000000000000
cyclobutene,54.09164,446.33,0.189,275.75,C[Si](C)(C)O[Si](C)(C)O[Si](C)(C)O[Si](C)(C)C,00000000000000001000000000000000010000000000000000000001000000000000000000000000100010000000000000000000000000000000000000100000
cyclodecane,140.2688,709.0,0.292,475.15,CCCCCCCCCC=O,00000000001000000100000000100000010000100000000000000010000000000000000000000000100000000000000000000000100010000000000100000000
cyclododecane,168.32256,747.23,0.313,512.15,CCCCCCCCCC,00000000000000000000000000100000010000100000000000000000000000000000000000000000100000000000000000000000000000000000000100000000
cycloeicosane,280.5376,842.81,0.424,621.15,CCCCCCCCCC#N,00000000000000000000001000100100011000100000000000000000000000000100000000000000100000000000000000000000100000000000000100000000
cycloheptadecane,238.45696,815.06,0.385,586.15,CCCCCCCCCC(O)=O,00000100001000000000000000101000010000110000000000000000000000000000000001000000100000000000000000000000000000000000000100000100
cycloheptane,98.18816,604.2,0.241,391.94,CCCCCCCCCCOC(C)=O,00000000001101000001000000100000010000110000000000000001000000000000000000000000100000000000000000000000000000000000000101000100
cycloheptene,96.17228,598.0,0.252,387.5,CCCCCCCCCCO,00000000000000000000000000100000010000110000000000000000000000000000000000000000100000000100001000000000000000000000000100000000
cyclohexadecane,224.43008,804.08,0.371,573.15,CCCCCCCCCCOC(=O)CCC,00000000001001000001000000101000010000110000000000000001000000000000000000000000100000000000000000000000001000000000000100000100
cyclohexane,84.16128,553.8,0.208,353.87,CCCCCCCCCCCl,00000000000000000001000000100000010000100000000010000000000000000000000000000000100001000000000000000000000000000000000100000000
cyclohexanemethanamine,113.20284,622.0,0.386,433.15,CCCCCCCCCCOC=O,00000000001001000000000000100001010000100000000000000011000000000000000000000000100000000000000000000010000010000000000100000000
cyclohexanethiol,116.22728,664.0,0.264,431.95,CCCCCCCCCCS,00000000000010000000000000100000010000100000000000010000000000000000000000000000100000000000000000000100000000000000000100000000
cyclohexanol,100.16068,650.1,0.369,434.0,CCCCCCCCCCOC(=O)CC,00100000001001000001000000100000010000110000000000000001000000000000000000000000100000000000000000000000001000000000000100000100
cyclohexanone,98.1448,553.0,0.306,428.9,CCCCCCCCCCN,00000000000000000001000000100000010000100000000010000000000000000000000000000000100001000000000000000000000000000000000100000000
cyclohexanone oxime,113.15948,715.0,0.462,481.15,CCCCCCCCCCc1ccccc1,00000000000000000000000000100000010000100000000000000000000000001000000000000000110000100011000000001000000000000000000100000000
cyclohexene,82.1454,560.4,0.212,356.12,CCCCCCCCCCC1CCCCC1,00001000000000000000000000100110010000100000010000000000000000001000000000000000100000000000000000000000000000000000000100010000
cyclohexyl acetate,142.19796,648.0,0.421,447.15,CCCCCCCCCCC1CCCC1,00001000000000000000000000100110010000100000010000000000000000001000000000000000100000000000000000000000000000000000000100010000
cyclohexyl formate,128.17108,645.0,0.368,435.65,CC(C)c1ccc2c(CC[C@H]3[C@@](C)(CCC[C@]23C)C(O)=O)c1,01001100001000000000000000010010010010010000010000000001100010000000000000100000010011100000101000001000000100000000000000110100
cyclohexyl isocyanate,125.17048,633.0,0.525,442.15,CC(C)c1ccc2c(CC[C@H]3[C@](C)(CN)CCC[C@]23C)c1,01001000001000000001100000010010010010000000010000000000000010000000000000100000110011100000101000001000000100000000000000110000
cyclohexyl peroxide,116.16008,685.0,0.751,490.0,CCCCCCOCCOCCO,00000000000001000000000000100000010000110000000000000001000000000000000010000000100000000100001000000000000000000000000100000000
cyclohexylamine,99.17596,615.0,0.36,407.65,C1CCC(CC1)N,00001000000000000001000000000110000000001000010000000000000000000000000000000000000000000000000000000000000000000000000000010000
cyclohexylbenzene,160.25904,744.0,0.378,513.27,C1CCC(CC1)C2=CC=CC=C2,00001000000000000000000000000010000000000000010000000000000000001000000000000000110000100000000000001000000000000000000000010001
cyclononadecane,266.51072,834.39,0.412,610.15,C1CCCCCCCCCCCCCCCCCC1,00001000000000000000000000000010000000000000000000000000000000000000000000000000000000000000000000000000000000000000000000000000
cyclononane,126.24192,682.0,0.281,451.55,CCCCCCCCOC(=O)CCCCC(=O)OCCCCCCCC,00000000001001000001000000101000010000110000000000000001000000000000000000000000100000000000000000000000001000000000000100000100
cyclooctadecane,252.48384,824.69,0.399,598.15,CCCCCOCCCCC,00000000000001000000000000100000010000100000000000000001000000000000000010000000100000000000000000000000000000000000000100000000
cyclooctane,112.21504,647.2,0.252,424.29,CCCNCCC,10000000000000000000000000110000010000100000000000000000000000000000000000000000100000000000000000000000000010000000000000000000
cyclooctene,110.19916,632.0,0.28,416.15,CCC(C)OC(C)CC,01000000100000000000000000010000110000100000000000000001000000000000000000000000100000000000000000000001000000000000000000000000
cyclopentadecane,210.4032,791.72,0.357,559.15,C1CCCCCCCCCCCCCC1,00001000000000000000000000000010000000000000000000000000000000000000000000000000000000000000000000000000000000000000000000000000
cyclopentadiene,66.10264,507.0,0.212,314.65,CCC(C)SC(C)CC,01100000100000000000000000010000010000110000000000000000000000000000000000000000100000000000000000000000000000000000100000000000
cyclopentane,70.1344,511.7,0.195,322.4,CCC(C)NC(C)CC,11000000100000000000000000010000010000100000000000000000000000000000000000000000100100000000000000100000000000000000000000000000
cyclopentaneacetic acid,128.17108,708.0,0.614,501.15,CC(C)(C)OOC(C)(C)C,00000000100000000000000000000000010000000000000000000001000000000001000100000000000000000000000000000000000000000010000000000000
cyclopentanethiol,102.2004,629.0,0.262,405.33,CC(C)(C)SSC(C)(C)C,00000000100000000000000000000000010000000001000000000000000000000000000000000000000000100000000000000000000000000010100000000000
cyclopentanone,84.11792,624.5,0.288,403.8,CC(C)(C)OC(C)(C)C,00000000100000000000001000000000010000000000000000000001000000000001000000000000000000000000000000000000000000000010000000000000
cyclopentene,68.11852,507.0,0.195,317.38,CC(C)(C)C(=O)C(C)(C)C,00000000101000100000000000000000010000010000000000000000000000000000000000000000000000000000000000000000000000000010000000010100
cyclopropane,42.08064,397.91,0.127,240.37,CC(C)(C)SC(C)(C)C,00000000100000000000000000000000010000000001000000000000000000000000000000000000000010000000000000000000000000000010100000000000
cyclopropanecarboxylic acid,86.09044,656.42,0.5,456.15,CC(C)(C)[S](=O)(=O)C(C)(C)C,00000000101000000000000000000000010001000000000000000000000000000000100000000000000000000000001000000000000000000010000000100000
cyclotetradecane,196.37632,777.91,0.343,544.15,CC(=O)CC(C)(C)O,00000000101000100000000000000000010001010000000000000000000000000000000000000000100000010000000000000000000000000010100001000100
cyclotridecane,182.34944,764.06,0.328,529.15,C=CCOC(=O)\C=C/C(=O)OCC=C,00000000001000000001000000000001000100010000100001000011000000000000000000000000100000100000000000000000000001000000000000000100
cycloundecane,154.29568,728.78,0.298,494.15,C1C2CC3C4CC5CC(C14)C(C2)C3C5,00000000000010000000000000000010000000100000000000000000000000000000000000000000000000000000000000000000000000100000000000010000
cymene,134.22116,664.65,0.378,449.5,o1c2ccccc2c3ccccc13,00000000000000001000000000000000000000000000000000000000000000001000100000000100010000100000000000001000000000000000000000000000
decaborane,122.22116,791.78,0.203,486.15,[nH]1c2ccccc2c3ccccc13,00000000000000000000000000000000000000000000000000000000000000001000000000000100010000100010000000001000000000000000000100000000
decafluorobutane,238.028032,386.35,0.372,271.15,s1c2ccccc2c3ccccc13,00000000000000000000000000000000001100000000000000000000000000001000000000000100010000100000000000001000000000000000010000000000
decahydronaphthalene; (cis+trans),138.25292,694.65,0.274,446.4,C(OCc1ccccc1)c2ccccc2,00000000000000000000000000000000000000000000000000000001000000001000000010000000110000100010000000001000010000000000000000000000
decamethylcyclopentasiloxane,370.7727,619.15,0.666,484.1,BB,00000000000000000000000000000000000000000000000000000000000000000000000000000000100000000000000001000000000000000000000000000000
decamethyltetrasiloxane,310.6884,599.4,0.673,467.15,C[Si](C)(C)O[Si](C)(C)O[Si](C)(C)O[Si](C)(C)C,00000000000000001000000000000000010000000000000000000001000000000000000000000000100010000000000000000000000000000000000000100000
decanal,156.2682,674.2,0.582,488.15,Brc1ccccc1Br,00000000000000000000000000000000000000000000000000000000000000001100000000000000010000101000000100001000000000000000000000000000
decane,142.28468,617.7,0.492,447.3,FC(F)(Br)Br,00000000100000000000000000000000000000000000010000000000000000000000000000000000010000001100000000000000000000000010000000000000
decanenitrile,153.2676,692.64,0.645,516.15,BrCBr,00000000000000000000000000000000000000000000000000000000000000000000000000000000100000001100000000000000000000000000000000010000
decanoic acid,172.2676,722.1,0.806,543.15,CCCCSSCCCC,10000000000000000000000000100010010000100000000000000000000000000000000000000000100000000000000000000000000000000000100100000000
decyl acetate,200.32136,678.0,0.75,517.15,CCCCOCCCC,00000000000001000000000000100000010000100000000000000001000000000000000010000000100000000000000000000000000000000000000100000000
decyl alcohol (mixed isomers),158.28408,629.0,0.793,472.78,CCCCOC(=O)\C=C/C(=O)OCCCC,00000000001001000001000000100001010000110000000001000011000000000000000000000000100000000000000000000000000000000000000100000100
decyl butanoate,228.37512,720.2,0.62,553.15,CCCCOC(=O)c1ccccc1C(=O)OCCCC,00000000001001000101000000100000010000110000000000000001000000001000000100000000110000100000000000001000000000000000000100000100
decyl chloride (mixed isomers),176.72944,679.88,0.547,499.02,CCCCO[S](=O)(=O)OCCCC,00000000001001000000000000100000010000100100000000000001000000000000100000000000100000000001001000000000000000000000000100000000
decyl formate,186.29448,672.0,0.712,506.0,CCCCSCCCC,00000000000000000000000000100010010000100000000000000000010000000000000000000000100000000000000000000000000000000000100100000000