name,molweight,critical temperature (K),acentric factor,boiling point (K),SMILES,ECFP_Bits
dinonylamine,269.5144,761.5,0.891,607.15,CCCCCCCCCCCCCCCCCCCC,00000000000000000000000000100000010000100000000000000000000000000000000000000000100000000000000000000000000000000000000100000000
dioctyl disulfide,290.57796,784.46,0.806,619.16,CCCCCCCCCCCCCCCCCCCC#N,00000000000000000000001000100100011000100000000000000000000000000100000000000000100000000000000000000000100000000000000100000000
dioctyl ether,242.44536,707.0,0.934,559.65,CCCCCCCCCCCCCCCCCCCC(O)=O,00000100001000000000000000101000010000110000000000000000000000000000000001000000100000000000000000000000000000000000000100000100
dioctyl sulfide,258.51196,760.0,0.88,601.0,CCCCCCCCCCCCCCCCCCCCN,00000000000000000001000000100000010000100000000010000000000000000000000000000000100001000000000000000000000000000000000100000000
dioctylamine,241.46064,734.0,0.819,580.81,CCCCCCCCCCCCCCCCCCCCc1ccccc1,00000000000000000000000000100000010000100000000000000000000000001000000000000000110000100011000000001000000000000000000100000000
dipentyl disulfide,206.41668,726.94,0.614,537.06,CCCCCCCCCCCCCCCCCCCCC1CCCCC1,00001000000000000000000000100110010000100000010000000000000000001000000000000000100000000000000000000000000000000000000100010000
dipentyl sulfide,174.35068,701.03,0.551,500.0,CCCCCCCCCCCCCCCCCCCCC1CCCC1,00001000000000000000000000100110010000100000010000000000000000001000000000000000100000000000000000000000000000000000000100010000
dipentylamine,157.29936,639.0,0.677,476.15,O=C1CCCCCN1,00001000001000000000000000000010000000010000000001000000001000000000000000100000000000000010000000001000000000000000000000000000
diphenyl ether,170.2108,766.8,0.439,531.46,O=C1CCCCCO1,00001000001000001000000000000010000000000000000000000010011000000000000000100000000000000000000000001000000000000000000000000000
diphenylacetylene,178.2334,832.0,0.384,573.0,C1=CC=C(C=C1)C#CC2=CC=CC=C2,00000000000000000000000000000000001000000000001000000000000000001000000000000000010000100000000000001010000000000000000000000000
diphenylamine,169.22608,817.0,0.53,575.15,CC,00000000000000000000000000000000010000000000000000000000000000000000000000000000000000000000000000000000000000000000000000010000
diphenylmethane,168.23828,760.0,0.482,537.42,CC[S](Cl)(=O)=O,00000001001000000001000000000000010000100000000000000000000000000000100100000000100000000000001000000000000000000000000000000000
"diphenylmethane-4,4'-diisocyanate",250.25668,802.0,0.95,609.0,CCOC(=O)C(C)(C)C,00000000101000100001000000000000010000110000000000000001000000000000001000000000100000100000000000000000000000000010000000000100
dipropyl disulfide,150.30916,675.0,0.437,469.0,CCOC(=O)C=CC,00000000001000000001000000000001010000110000000001000011000000000000000000001000100000100000000000000000000000000000000000000100
dipropyl ether,102.17656,530.6,0.369,363.23,CCCCC(CC)C(=O)OCC,01000000101000000001000000100000010000110000000000000001000000000000000000000000100001100000000000010000000000000000000100000100
dipropyl maleate,200.23464,691.0,0.782,521.0,CCCOC(=O)/C=C\C(=O)OCCC,00000000001001000001000000100001010000110000000001000011000000000000000000000000100000000000000000000000000000000000000000000100
dipropyl phthalate,250.29452,768.0,0.855,590.65,CCOC(=O)C(C)CC,01000000101000000001000000010000010000110000000000000001000000000000000000000000100000100000000010000000000000000000000000000100
dipropyl sulfide,118.24316,608.0,0.374,415.98,CCOC(=O)CC=C,00000000001000000001000000000000010000110000100000000011000000010000000000000000100000100000000000000000001001000000000000000100
dipropyl sulfone,150.24196,763.0,0.582,543.0,CCOC(=O)C=C(C)C,00000000001000000001000000000000010000110000000001000011000000000000000000000000100000100000000010000000010000000000000001000100
dipropylene glycol monoethyl ether,162.22912,617.0,0.931,471.0,CCCC(C)CC(=O)OCC,01000000001000000001000000110000010000110000000000000001000000000000000000000000100000110000000000010000001000000000000000000100
dipropylene glycol monomethyl ether,148.20224,612.0,0.88,461.45,CCCCCCC(C)CC(=O)OCC,01000000001000000001000000110000010000110000000000000001000000000000000000000000100000110000000000010000001000000000000100000100
disilane,62.21864,432.0,0.0939,259.0,CCOC(=O)CCC(C)CC,01000000101000000001000000011000010000110000000000000001000000000000000000000000100000110000000000010000001000000000000000000100
"disilane, hexachloro",268.8872,660.96,0.035,418.15,CCOC(=O)CCC(C)C,01000000001000000001000000011000010000110000000000000001000000000000000000000000100000100000000000010000001000000000000000000100
"disilane, hexafluoro",170.1614192,411.33,0.022,254.25,CCOC(C)=O,00000000001100000001000000000000010000110000000000000001000000000000000000000000100000100000000000000000000000000000000001000100
disiloxane,78.21804,416.86,0.078,257.95,CCO,00100000000000000000000000000000010000110000000000000000000000000000000000000000100000000000001000000000000000000000000000000000
"disulfide, bis(1-methylpropyl)",178.36292,704.16,0.529,513.34,CCCCOCC,00000000000001000000000000100000010000100000000000000001000000000000000010000000100000100000000000000000000000000000000100000000
"disulfide, bis(2-methylpropyl)",178.36292,704.16,0.529,493.0,CCCCSCC,00000000000000000000000000100010010001100000000000000000010000000000000000000000100000000000000000000000000000000000100100000000
diundecyl phthalate,474.7246,970.0,0.747,783.0,CCCl,00000000000000000001010000000000010000100000000000000000000000000000000000000000100001000000000000000000000000000000000000000000
diundecylamine,325.62192,804.24,0.8,655.15,CCOC(=O)CCl,00000000001000000001000000010000010000110000000000000001000000000000000000000000100001100000000000000000001000000000000000000100
divinyl ether,70.09104,463.0,0.291,301.45,CCOC(Cl)=O,00000000001010000001000000000000010000110000100000000001000000000000000000000000100000100000000000000000000000000000000000000100
docosane,310.60724,787.0,0.972,641.75,CCOC(=O)\C=C/C,00000000001000000001000000000001010000110000000001000011000000000000000000001000100000100000000000000000000000000000000000000100
docosylamine,325.62192,834.97,0.821,680.15,CCOC(=O)CC#N,00000000001000000001001000000000011000110000000000000001000000000100000000000000100000100000000000000000101000000000000000000100
dodecamethylpentasiloxane,384.84294,628.4,0.726,503.0,CCCCCCCCCC(=O)OCC,00000000001000000001000000101000010000110000000000000001000000000000000000000000100000100000000000000000001000000000000100000100
dodecanal,184.32196,708.0,0.675,523.15,CCCCCCCCCCSCC,00000000000000000000000000100010010001100000000000000000010000000000000000000000100000000000000000000000000000000000100100000000
dodecane,170.33844,658.0,0.576,489.47,CCCCCCCCCCCCSCC,00000000000000000000000000100010010001100000000000000000010000000000000000000000100000000000000000000000000000000000100100000000
dodecanenitrile,181.32136,720.09,0.72,550.15,CCOC(O)CC,01000000100000000000000000000000010000110000000000000001000010000000000000010000100000100000000000010000000000000000000000000000
dodecanoic acid,200.32136,743.0,0.88,571.85,CCF,00000000100000000000000000000000010000100000000000000000000000000000000000000000100000010000000000000000100000000000000000000000
dodecyl acetate,228.37512,720.3,1.006,538.15,CCOC=O,00000000001000000000000000000001010000100000000000000011000000000000000000000000100000100000000000000010000010000000000000000000
dodecyl formate,214.34824,713.2,0.798,554.36,CCCCCCCCCCCCCCCCCSCC,00000000000000000000000000100010010001100000000000000000010000000000000000000000100000000000000000000000000000000000100100000000
dodecylamine,185.35312,696.0,0.764,532.35,CCCCCCC(=O)OCC,00000000001000000001000000101000010000110000000000000001000000000000000000000000100000100000000000000000001000000000000100000100
dodecylbenzene,246.4362,780.0,0.733,600.76,CCCCCCCOCC,00000000000001000000000000100000010000100000000000000001000000000000000010000000100000100000000000000000000000000000000100000000
dodecylcyclohexane,252.48384,772.83,0.675,600.86,CCCCCCCSCC,00000000000000000000000000100010010001100000000000000000010000000000000000000000100000000000000000000000000000000000100100000000
dodecylcyclopentane,238.45696,755.17,0.669,584.06,CCCCCCCCCCCCCCCCSCC,00000000000000000000000000100010010001100000000000000000010000000000000000000000100000000000000000000000000000000000100100000000
eicosanal,296.537,784.21,0.856,634.15,CCCCCC(=O)OCC,00000000001000000001000000101000010000110000000000000001000000000000000000000000100000100000000000000000001000000000000100000100
eicosane,282.55348,768.0,0.907,616.93,CCCCCCOCC,00000000000001000000000000100000010000100000000000000001000000000000000010000000100000100000000000000000000000000000000100000000
eicosanenitrile,293.5364,813.13,0.829,659.15,CCCCCCSCC,00000000000000000000000000100010010001100000000000000000010000000000000000000000100000000000000000000000000000000000100100000000
eicosanoic acid,312.5364,821.0,1.087,670.15,CCI,00000000000000000000010000000000010000100000000000000000000000000000000000000000100000010000000000000100000000000000000000000000
eicosylamine,297.56816,794.6,0.98,656.15,CCOC(=O)C(C)C,01000000001000000001000000010000010000110000000000000001000000000000010000000000100000100000000000000000000000000000000000000100
eicosylbenzene,358.65124,851.65,0.759,693.15,CCOCC(C)C,01000000000000000000000000010000010000100000000000000001000000000000000010000000100000100000000000000000000000000000001000000000
eicosylcyclohexane,364.69888,853.38,0.708,695.15,CCN=C=O,00000000001000000000000000000000011000100000000000000100000000000000000000000000100101000000000000000000000000000000000010010000
eicosylcyclopentane,350.672,839.72,0.729,683.15,CC[N+]#[C-],00000000000000000000000000000000010000101000000000100000000000000000000000001000100000000010000000000001000000000000000000000000
epsilon-caprolactam,113.15948,806.0,0.476,543.15,CCOCCC(C)C,01000000000001000000000000010000010000100000000000000001000000000000000010000000100000100000000000010000000000000000000000000000
epsilon-caprolactone,114.1442,771.0,0.442,514.0,CCOC(C)C,01000000000000000000000000010000010000100000000000000001001010000000000000000000100000100000000000000000000000000000000000000000
"erythro-4,4-dimethyl-2,3-pentanediol",132.20284,710.3,1.107,539.81,CCC(=O)C(C)C,01100000001000000000000000010000010000110000000000000001000000000000010000000000100000000000000000000000000000000000000000000100
ethane,30.06964,305.32,0.1,184.55,CCOC(=O)CC(C)C,01000000001000000001000000010000010000110000000000000001000000000000000000000000100000100000000000000000001000000000000000000100
ethanesulfonyl chloride,128.5792,682.0,0.369,448.49,CCOC(=O)C(C)O,01000000001010000001000000010000010000110000000000000001000000000000000000000000100000100000000000010000000000000000000000000100
"ethyl 2,2-dimethylpropanoate",130.18696,580.5,0.562,391.55,CCS,00000000000000000000000000000000010000100000000000010000000000000000000000000000100000000000000001000100000000000000000000000000
ethyl 2-butenoate,114.1442,569.0,0.434,409.65,CCOC(=O)C(C)=C,00000000001000000001000000000000010000110000000000000001100000000000000001000000100000100000000000000000000000000000000001000110
ethyl 2-ethylhexanoate,172.2676,637.0,0.579,473.73,CCO[S](=O)(=O)OC,10000000001000000000000000000000010000100100000000000001000000000000100001000000100000100001001000000000000000000000000000000000
"ethyl 2-methylbutanoate, (+)",130.18696,584.0,0.456,405.15,CCCCCCCCC(=O)OCC,00000000001000000001000000101000010000110000000000000001000000000000000000000000100000100000000000000000001000000000000100000100
ethyl 2-methylbutyrate,130.18696,587.95,0.407,405.9,CCCCCCCCCSCC,00000000000000000000000000100010010001100000000000000000010000000000000000000000100000000000000000000000000000000000100100000000
ethyl 3-butenoate,114.1442,569.0,0.434,392.15,CCCCCCCCCCCCCCCCCCSCC,00000000000000000000000000100010010001100000000000000000010000000000000000000000100000000000000000000000000000000000100100000000
ethyl 3-methyl-2-butenoate,128.17108,592.33,0.432,426.65,CCCCCCCC(=O)OCC,00000000001000000001000000101000010000110000000000000001000000000000000000000000100000100000000000000000001000000000000100000100
ethyl 3-methylhexanoate,158.24072,629.0,0.596,450.15,CCCCCCCCOCC,00000000000001000000000000100000010000100000000000000001000000000000000010000000100000100000000000000000000000000000000100000000
ethyl 3-methylnonanoate,200.32136,667.0,0.699,523.39,CCCCCCCCSCC,00000000000000000000000000100010010001100000000000000000010000000000000000000000100000000000000000000000000000000000100100000000
ethyl 4-methylhexanoate,158.24072,629.0,0.596,453.15,CCCCCCCCCCCCCCCSCC,00000000000000000000000000100010010001100000000000000000010000000000000000000000100000000000000000000000000000000000100100000000
ethyl 4-methylpentanoate,144.21384,602.0,0.395,436.15,CCCCC(=O)OCC,00000000001000000001000000101000010000110000000000000001000000000000000000000000100000100000000000000000001000000000000100000100
ethyl acetate,88.10632,523.3,0.366,350.21,CCCCCOCC,00000000000001000000000000100000010000100000000000000001000000000000000010000000100000100000000000000000000000000000000100000000
ethyl acrylate,100.11732,553.0,0.378,372.65,CCCCCSCC,00000000000000000000000000100010010001100000000000000000010000000000000000000000100000000000000000000000000000000000100100000000
ethyl alcohol,46.06904,513.92,0.645,351.44,CCOC(=O)CC,00100000001000000001000000000000010000110000000000000001000000000000000000000000100000100000000000000000001000000000000000000100
ethyl benzoate,150.1772,698.0,0.477,486.55,CCOC=CC,00000000000000000000000000000000010000100000000000000011000000000000000000001000100000100000000000000010000000000001000000000000
ethyl butanoate,116.16008,571.0,0.401,394.65,CCCOCC,00000000000001000000000000100000010000100000000000000001000000000000000010000000100000100000000000000000000000000000000000000000
ethyl butyl ether,102.17656,531.0,0.385,365.35,CCCSCC,00000000000000000000000000100010010001100000000000000000010000000000000000000000100000000000000000000000000000000000100000000000
ethyl butyl sulfide,118.24316,609.0,0.374,417.41,CCOC(C)CC,01000000100000000000000000010000110000100000000000000001000010000000000000000000100000100000000000000000000000000000000000000000
ethyl chloride,64.5144,460.35,0.19,285.42,CCO[S]([O-])(=O)=O,00000000001000000000000000000100010000100000000000000001000000000000100000010000100000100001001000000000000000000000000000010000
ethyl chloroacetate,122.55108,618.0,0.393,417.35,CCOC(C)(C)C,00000000100000000000000000000000010000100000000000000001000000001001000000000000100000100000000000000000000000000010000000000000
ethyl chloroformate,108.5242,508.15,0.835,366.0,CCCCCCCCCCCCCCSCC,00000000000000000000000000100010010001100000000000000000010000000000000000000000100000000000000000000000000000000000100100000000
ethyl cis-2-butenoate,114.1442,569.0,0.434,409.15,CCOC(=O)\C=C\C,00000000001000000001000000000001010000110000000001000011000000000000000000001000100000100000000000000000000000000000000000000100
ethyl cyanoacetate,113.11612,679.0,0.558,479.15,CCOC(=O)C(/C)=C/C,00000000001000000001000000000000010000110000000000000011000000000000000001001000100000101000000000000000000000000000000001000100
ethyl decanoate,200.32136,667.0,0.699,514.65,CCCCCCCCCCCCCSCC,00000000000000000000000000100010010001100000000000000000010000000000000000000000100000000000000000000000000000000000100100000000
ethyl decyl sulfide,202.40444,733.68,0.631,537.0,CCCCCCCCCCC(=O)OCC,00000000001000000001000000101000010000110000000000000001000000000000000000000000100000100000000000000000001000000000000100000100
ethyl dodecyl sulfide,230.4582,762.23,0.7,569.0,CCCCCCCCCCCSCC,00000000000000000000000000100010010001100000000000000000010000000000000000000000100000000000000000000000000000000000100100000000
ethyl ether of propylene glycol,104.14908,582.0,0.783,444.01,CCOc1cc(C=O)ccc1O,00000000001000000000000000000000010000110000100000100011000000000010000100000000110000100000000000001000000110000100000000000000
ethyl fluoride,48.0601032,375.31,0.22,235.45,CCOC=C,00000000000000000000000000000000010000100000000000000011000000000000000000000000100100100000000000000010000001000000000000000000
ethyl formate,74.07944,508.4,0.285,327.46,CCOCCC(=O)OCC,00000000001001000001000000001000010000110000000000000001000000000000000010000000100000100000000000000000001000000000000000000100
ethyl heptadecyl sulfide,300.5926,821.75,0.794,635.0,CCNC(C)CC,11000000100000100000000000010000010000100000000000000000000000100000000000000000100000000000000000100000000000000000000000000000
ethyl heptanoate,158.24072,629.0,0.596,460.15,CCNC(C)(C)C,10000000100000000000000000000000010000100000000000000000000000100000000000000000100000000101000000000000000000000010000000000000
ethyl heptyl ether,144.2572,592.67,0.508,439.15,CCCC(=O)CC([O-])=O,10000000001000000100000010101000010000110000000000000000000000000000000000110000100000000000000000000000000000000000000000000100
ethyl heptyl sulfide,160.3238,681.56,0.508,480.0,CCC#C,00000000000000000001000000000000011100100000000000000000000000000000000000000010100000000000000000000000000000000000000000000000
ethyl hexadecyl sulfide,286.56572,810.53,0.787,625.0,CCN,00000000000000000001010000000000010000100000000000000000000000000000000000000000100001000000000000000000000000000000000000000000
ethyl hexanoate,144.21384,602.0,0.395,440.15,CCc1ccccc1,00000001000000000000000000000000010000100000000000000000000000001000000000000000110000100010000000001000000000000000000000000000
ethyl hexyl ether,130.23032,583.0,0.494,417.15,CCc1ccccc1.O[O-],00000001000000000000000000000000010000110000000000000000000000001000000000010000110000100110000000001000000000000000000000000000
ethyl hexyl sulfide,146.29692,660.72,0.465,460.0,CCCCNCC,10000000000000000000000000110000010000100000000000000000000000100000000000000000100000000000000000000000000010000000000100000000
ethyl iodide,155.96617,561.0,0.224,345.45,CCC1CCC1,00001000000000000000000000000110010000100000011000000000000000000000000000000000100000000000000000000000000000000000000000010000
ethyl isobutanoate,116.16008,553.15,0.426,383.0,CCC1CCCCC1,00001000000000000000000000000110010000100000011000000000000000000000000000000000100000000000000000000000000000000000000000010000
ethyl isobutyl ether,102.17656,520.57,0.359,354.25,CCC1CCCC1,00001000000000000000000000000110010000100000011000000000000000000000000000000000100000000000000000000000000000000000000000010000
ethyl isocyanate,71.07884,526.0,0.255,333.15,CCC1CC1,00000000000000000000000000000110010000100000011000000000000000000000000000000000100000000000000000000000000000000000000000010000
ethyl isocyanide,55.07944,535.33,0.338,351.65,CCCCCCCCCCNCC,10000000000000000000000000110000010000100000000000000000000000100000000000000000100000000000000000000000000010000000000100000000
ethyl isopentyl ether,116.20344,558.21,0.307,385.65,CCCCCCCCCCCCCCCCCCCCCCNCC,10000000000000000000000000110000010000100000000000000000000000100000000000000000100000000000000000000000000010000000000100000000
ethyl isopropyl ether,88.14968,489.0,0.306,326.15,CCCCCCCCCCCCNCC,10000000000000000000000000110000010000100000000000000000000000100000000000000000100000000000000000000000000010000000000100000000
ethyl isopropyl ketone,100.16068,567.0,0.389,386.55,CCCCCCCCCCCCCCCCCCCCNCC,10000000000000000000000000110000010000100000000000000000000000100000000000000000100000000000000000000000000010000000000100000000
ethyl isovalerate,130.18696,587.95,0.4,407.45,C=C,00000000000000000000000000000000000000000000000000000000000000000000000000000100000000100000000000000000000000000000000000000000
ethyl lactate,118.1326,588.0,0.793,427.65,O=C1OCCO1,00000000001000001000000000000010000000000000000100000010011000000000000000000000000000000000000000001000000000000000000000000000
ethyl mercaptan,62.13564,499.15,0.188,308.15,OCCO,00000000000000000000000000000000000000010000000000000000000000000000000000000000100000000100001000000000000000000000000000000000