name,molweight,critical temperature (K),acentric factor,boiling point (K),SMILES,ECFP_Bits
(+)-camphene,136.23704,638.0,0.296,432.65,CC1(C)C2CCC(C2)C1=C,00000000100010001000000000000010010110000000010000000000000010000000000000000000100000100000000000001000000000000000000000110000
(-)-a-pinene,136.23704,647.0,0.341,429.35,CC1=CC[C@H]2C[C@@H]1C2(C)C,00000000000010001000000000000010010011000001000000000000001000000000000000000000010000100000000000001000000000000000010000110000
(-)-camphene,136.23704,638.0,0.296,439.95,CC1(C)C2CCC(C2)C1=C,00000000100010001000000000000010010110000000010000000000000010000000000000000000100000100000000000001000000000000000000000110000
"(1,1-dimethylbutyl)benzene",162.27492,697.15,0.437,478.65,CCCC(C)(C)c1ccccc1,00000000110000000000000000101000010000100000000000000000001000001000000000000000110000100000000000001000000000000010000000000000
(1-butylhexadecyl)benzene,358.65124,851.65,0.759,693.15,CCCCCCCCCCCCCCCC(CCCC)c1ccccc1,01000000000000000000000000100000010000100000000000000000000000001000000000000000110001100000000000011000100000000000000100000000
(1-ethyl-1-methylpropyl)benzene,162.27492,697.15,0.437,478.15,CCC(C)(CC)c1ccccc1,00000000110000000000000000000000010000110000000000000000000000001000000000000000110000100000000000001000000000000010000000000000
(1-ethylbutyl)benzene,162.27492,697.15,0.437,482.15,CCCC(CC)c1ccccc1,01000000100000000000000000100000010000100000000000000000000000001000000000000000110001100000000000011000100000000000000000000000
(1-ethyloctadecyl)benzene,358.65124,851.65,0.759,693.15,CCCCCCCCCCCCCCCCCC(CC)c1ccccc1,01000000100000000000000000100000010000100000000000000000000000001000000000000000110001100000000000011000100000000000000100000000
(1-hexylheptyl)benzene,260.46308,783.0,0.844,614.43,CCCCCCC(CCCCCC)c1ccccc1,01000000000000000000000000100000010000100000000000000000000000001000000000000000110001100000000000011000100000000000000100000000
(1-methylenepropyl)benzene,132.20528,666.0,0.354,455.15,CCC(=C)c1ccccc1,00100000000000000000000000000000010000110000000000000000000000001000000000000000110000100000000001001000010000000000000000000010
(1-methylheptyl)benzene,190.32868,712.89,0.565,523.94,CCCCCCC(C)c1ccccc1,01000000000000000000000000110000010000100000000000000000000000001000000000000000110001100000000000011000000000000000001100000000
(1-methylnonadecyl)benzene,358.65124,851.65,0.759,693.15,CCCCCCCCCCCCCCCCCCC(C)c1ccccc1,01000000000000000000000000110000010000100000000000000000000000001000000000000000110001100000000000011000000000000000001100000000
(1-methylnonyl)benzene,218.38244,738.32,0.659,562.65,CCCCCCCCC(C)c1ccccc1,01000000000000000000000000110000010000100000000000000000000000001000000000000000110001100000000000011000000000000000001100000000
(1-methylpentyl)benzene,162.27492,697.15,0.437,481.15,CCCCC(C)c1ccccc1,01000000000000000000000000110000010000100000000000000000000000001000000000000000110001100000000000011000000000000000001100000000
(1-octyldodecyl)benzene,358.65124,851.65,0.759,693.15,CCCCCCCCCCCC(CCCCCCCC)c1ccccc1,01000000000000000000000000100000010000100000000000000000000000001000000000000000110001100000000000011000100000000000000100000000
(1-propylheptadecyl)benzene,358.65124,851.65,0.759,693.15,CCCCCCCCCCCCCCCCC(CCC)c1ccccc1,01000000000000000000000000100000010000100000000000000000000000001000000000000000110001100000000000011000100000000000000100000000
(1-thiapropyl)-benzene,138.2334,712.96,0.372,478.15,CCSc1ccccc1,00000000000000000000000000000000010001100001000000000000000000001000000000000000110001100000000000001000000000000000100000000000
(1R)-(-)-menthyl chloride,174.71356,682.53,0.516,496.15,CC(C)C1CC[C@@H](C)CC1Cl,01000000000010000001000000010110010000001000010000000000000000000010000000000000010000000000000000000000000000000000000000011100
"(1R,2S,5R)-(-)-menthol",156.2682,658.0,0.78,489.55,CC(C)[C@@H]1CC[C@@H](C)C[C@H]1O,01000000000010000000000000010110010000010000010000000000000000000000000000000000010000000000000000000000010000000000000000011100
"(2,4-dimethylpentyl)benzene",176.3018,714.0,0.529,492.16,CC(C)CC(C)Cc1ccccc1,01000000000000000000000000010000010000001000000000000001000000001000000000000001110000110010000000001000000000000000000000000000
(2-methyl-1-propenyl)benzene,132.20528,681.41,0.341,461.06,CC(C)=Cc1ccccc1,00000000000000000000000000000000010000010000000000000010000000001000000000000000011000100000000000001000010000000100000001000000
(3-chloropropyl)cyclohexane,160.68668,662.93,0.474,487.85,ClCCCC1CCCCC1,00001000000000000001000000000110000000000000010010000000000000001000000000000000100001000000000000000000000000000000000100010000
(3-methylpentyl)benzene,162.27492,697.15,0.437,493.15,CCC(C)CCc1ccccc1,01000000100000000000000000010000010000100000000000000000000000001000000000000000110000110011000000011000000000000000000000000000
(3-octylundecyl)benzene,344.62436,841.84,0.778,683.15,CCCCCCCCC(CCCCCCCC)CCc1ccccc1,01000000000010000000000000100000010000100000000000000000000000001000000000000000110000100011000000011000000000000000000100000000
(4-methylpentyl)benzene,162.27492,697.15,0.437,490.15,CC(C)CCCc1ccccc1,01000000000000000000000000010000010000000000000000000001000000001000000000000000110000100011000000011000000000000000000100000000
"(E)-2,2,5,5-tetramethylhex-3-ene",140.2688,616.98,0.457,398.35,CC(C)(C)\C=C\C(C)(C)C,00000000100000000000000000000000010000000000000000000010000000000000000000000000000000000000000000000010000001000010000000000000
(R)-(+)-b-citronellol,156.2682,656.59,0.612,480.78,C[C@H](CCC=C(C)C)CCO,01000000000000000100000000010000010000010000000000000010000000000000000000000000100000010100001100010000010000000000000001000000
(R)-(+)-propylene oxide,58.08004,501.13,0.236,317.97,C[C@@H]1CO1,00010000000000001000000000000110011000000000000000000000000000000000000000000010000000000000000000000000000000000000000000010000
(R)-(-)-1-amino-2-propanol,75.1106,631.0,0.737,433.15,C[C@@H](O)CN,01000000000000000101000000010000010000010000000000000000000000000000000000000000100001000000000000010000000000000000010000000000
(R)-(-)-1-methoxy-2-propanol,90.1222,569.0,0.759,430.7,COC[C@@H](C)O,01000000000000000100000000010000010000010000000000000001000000000000000001000000100000000000000000010000000001000000001000000000
(R)-(-)-2-amino-1-butanol,89.13748,571.82,0.711,446.15,CC[C@@H](N)CO,01000000100000000011000000000000010000110000000000000000000000000000000000000000101000000000001000100000000000000000000000000000
(R)-(-)-2-amino-1-propanol,75.1106,631.0,0.737,447.65,C[C@@H](N)CO,01000000000000000011000000010000010000010000000000000001000000000000000000000000100000000000001000100000000000000000000000000000
(R)-(-)-2-amino-3-methyl-1-butanol,103.16436,626.41,0.841,462.65,CC(C)[C@@H](N)CO,01000000000000000011000000010000010000010000000000000000000000000000000000000000100000000000001000100000000001000000000000000010
(R)-(-)-2-butanol,74.1228,538.22,0.593,372.65,CC[C@@H](C)O,01000000100000000100000000010000010000110000000000000000000000000000000000000000100000000000000000010000000000000000000000000000
(R)-(-)-2-heptanol,116.20344,587.2,0.709,420.75,CCCCC[C@@H](C)O,01000000000000000100000000110000010000110000000000000000000000000000000000000000100000000000000000010000000000000000000100000000
(R)-(-)-2-octanol,130.23032,600.92,0.733,448.9,CCCCCC[C@@H](C)O,01000000000000000100000000110000010000110000000000000000000000000000000000000000100000000000000000010000000000000000000100000000
(R)-(-)-2-pentanol,88.14968,562.34,0.577,397.1,CCC[C@@H](C)O,01000000000000000100000000110000010000110000000000000000000000000000000000000000100000000000000000010000000000000000000000000000
(R)-(-)-sec-butylamine,73.13808,503.5,0.331,333.15,CC[C@@H](C)N,01000000100000000011000000010000010000100000000000000001000000000000000000000000100000000000000000000000000000000000000000000000
(R)-2-amino-6-methylheptane,129.2456,601.45,0.5,428.15,CC(C)CCC[C@@H](C)N,01000000000000000011000000010000010000000000000000000001000000000000000000000000100000000000000000010000000000000000000100000000
(R)-2-aminooctane,129.2456,601.45,0.5,437.15,CCCCCC[C@@H](C)N,01000000000000000011000000110000010000100000000000000001000000000000000000000000100000000000000000010000000000000000000100000000
(R)-2-heptylamine,115.21872,565.35,0.409,416.15,CCCCC[C@@H](C)N,01000000000000000011000000110000010000100000000000000001000000000000000000000000100000000000000000010000000000000000000100000000
"(R)-3,7-dimethyl-1-octanol",158.28408,629.0,0.793,485.7,CC(C)CCC[C@@H](C)CCO,01000000000000000000000000010000010000010000000000000001000000000000000000000000100000010100001000010000000000000000000100000000
(RS)-2-hexanol,102.17656,581.8,0.582,413.15,CCCCC(C)O,01000000000000000100000000110000010000110000000000000000000000000000000000000000100000000000000000010000000000000000000100000000
(S)-(+)-1-amino-2-propanol,75.1106,631.0,0.737,433.15,C[C@H](O)CN,01000000000000000101000000010000010000010000000000000000000000000000000000000000100001000000000000010000000000000000010000000000
(S)-(+)-1-dimethylamino-2-propanol,103.16436,626.41,0.841,397.15,C[C@H](O)CN(C)C,01000000000110000100000000010000010000010000000000000000000000000000100000000000100000000000000000010000000000000100000000000000
(S)-(+)-1-methoxy-2-propanol,90.1222,569.0,0.759,430.7,COC[C@H](C)O,01000000000000000100000000010000010000010000000000000001000000000000000001000000100000000000000000010000000001000000001000000000
(S)-(+)-2-amino-1-butanol,89.13748,571.82,0.711,446.15,CC[C@H](N)CO,01000000100000000011000000000000010000110000000000000000000000000000000000000000101000000000001000100000000000000000000000000000
(S)-(+)-2-amino-3-methyl-1-butanol,103.16436,626.41,0.841,435.3,CC(C)[C@H](N)CO,01000000000000000011000000010000010000010000000000000000000000000000000000000000100000000000001000100000000001000000000000000010
(S)-(+)-2-butanol,74.1228,538.22,0.593,372.6,CC[C@H](C)O,01000000100000000100000000010000010000110000000000000000000000000000000000000000100000000000000000010000000000000000000000000000
(S)-(+)-2-decanol,158.28408,629.0,0.793,484.15,CCCCCCCC[C@H](C)O,01000000000000000100000000110000010000110000000000000000000000000000000000000000100000000000000000010000000000000000000100000000
(S)-(+)-2-heptanol,116.20344,587.2,0.709,426.8,CCCCC[C@H](C)O,01000000000000000100000000110000010000110000000000000000000000000000000000000000100000000000000000010000000000000000000100000000
(S)-(+)-2-hexanol,102.17656,581.8,0.582,411.65,CCCC[C@H](C)O,01000000000000000100000000110000010000110000000000000000000000000000000000000000100000000000000000010000000000000000000100000000
(S)-(+)-2-methoxypropanol,90.1222,569.0,0.759,430.7,CO[C@@H](C)CO,01000000000000000000000000010000110000010000000000000001000000000000000101000000100000000000001000100000000000000000000000000000
(S)-(+)-2-methylbutyric acid,102.1332,640.04,0.599,409.77,CC[C@H](C)C(O)=O,01000100101000000000000000010000010000110000000000001000000000000000000000000000100000000000000010000000000000000000000000000100
(S)-(+)-2-methylbutyronitrile,83.1332,586.97,0.386,398.65,CC[C@H](C)C#N,01000000100000000000001000010000011000100000000000000000000000000000000000000000100000000100000000000000100000000000000000000000
(S)-(+)-2-octanol,130.23032,600.92,0.733,451.05,CCCCCC[C@H](C)O,01000000000000000100000000110000010000110000000000000000000000000000000000000000100000000000000000010000000000000000000100000000
(S)-(+)-2-pentanol,88.14968,562.34,0.577,391.65,CCC[C@H](C)O,01000000000000000100000000110000010000110000000000000000000000000000000000000000100000000000000000010000000000000000000000000000
(S)-(+)-sec-butylamine,73.13808,503.5,0.331,335.1,CC[C@H](C)N,01000000100000000011000000010000010000100000000000000001000000000000000000000000100000000000000000000000000000000000000000000000
(S)-(-)-2-methyl-1-butanol,88.14968,562.34,0.577,401.05,CC[C@H](C)CO,01000000100000000000000000010000010000110000000000000000000000000000000000000000100000010000001000100000000000000000000000000000
(S)-(-)-2-methylbutylamine,87.16496,525.16,0.379,354.02,CC[C@H](C)CN,01000000100000000001000000010000010000100000000000000000000000000000000000000000100001010000000000000000000000000000010000000000
(S)-(-)-propylene oxide,58.08004,501.13,0.236,308.05,C[C@H]1CO1,00010000000000001000000000000110011000000000000000000000000000000000000000000010000000000000000000000000000000000000000000010000
(S)-(1-methylpropyl)benzene,134.22116,664.65,0.378,457.1,CC[C@H](C)c1ccccc1,01000000100000000000000000010000010000100000000000000000000000001000000000000000110001100000000000001000000000000000001000000000
(S)-2-amino-6-methylheptane,129.2456,601.45,0.5,428.15,CC(C)CCC[C@H](C)N,01000000000000000011000000010000010000000000000000000001000000000000000000000000100000000000000000010000000000000000000100000000
(S)-2-aminooctane,129.2456,601.45,0.5,437.15,CCCCCC[C@H](C)N,01000000000000000011000000110000010000100000000000000001000000000000000000000000100000000000000000010000000000000000000100000000
(S)-2-chlorooctane,148.67568,642.41,0.462,442.45,CCCCCC[C@H](C)Cl,01000000000000000011000000110000010000100000000000000000000000000000000000000000100000010000000000010000000000000000000100000000
(S)-2-heptylamine,115.21872,565.35,0.409,416.15,CCCCC[C@H](C)N,01000000000000000011000000110000010000100000000000000001000000000000000000000000100000000000000000010000000000000000000100000000
(S)-3-methyl-2-butanol,88.14968,562.34,0.577,372.19,CC(C)[C@H](C)O,01000000000000000000000000010100010000010000000000000000000000000000000000000000000000000000000000010000000001000000000000000000
"(Z,E)-1,3-cyclooctadiene",108.18328,645.0,0.286,406.55,C1CC\C=C/C=C/C1,00001000000000000000000000000010000000000000000000000000000000000000000000000000010000000000001000000000100000000000000000010000
(acetyloxy)acetic acid,118.08924,764.0,0.71,542.0,CC(=O)OCC(O)=O,00000100001100000001000000000000010000010000000000000001000000000000000001000000100010000000000000000000000000000000000001000100
(bromomethyl)benzene,171.03658,699.0,0.318,474.15,BrCc1ccccc1,00000000000000000000000000000000000000000000000000000000000000001000000000000000110000101010000000101000000000000000000000010000
(fluoromethyl)benzene,110.1309832,590.48,0.311,413.15,FCc1ccccc1,00000000100000000000000000000000000000000100000000000000000000001000000000000000110000110010000000001000000000000000000000000000
(±)-3-methylvaleric acid,116.16008,661.0,0.652,469.1,CCC(C)CC(O)=O,01000100101000000000000000010000010000110000000000000000000000000000000001000000100000010000000000000000000000000000000000000100
"1,1'-[methylenebis(thio)]bisethane",136.28228,657.5,0.358,426.65,CCSCSCC,00000000000000000000000000000000010001100000000000000000010000000000000000100000100000000000000000000000000000000000100000000000
"1,1'-imidodiacetonitrile",95.10392,731.0,0.719,527.0,N#CCNCC#N,10000000000000000000001000000000011000000000000000000000000000000100000000000000100000000000000000000000100010000000000000000000
"1,1,1,2,2,3-hexafluoropropane",152.0392992,401.21,0.409,274.35,FCC(F)(F)C(F)(F)F,00000000100000000000000000001000000000000000010000000000000100000000000000000000100000010000000000000000000000000010000000000000
"1,1,1,2,2-pentafluoropropane",134.048836,380.11,0.305,255.5,CC(F)(F)C(F)(F)F,00000000100000000000000000000000010000010000010000000000000100000000000000000000000000000000000000000000000000000010000000000000
"1,1,1,2,3,3-hexafluoropropane",152.0392992,412.38,0.369,279.4,FC(F)C(F)C(F)(F)F,01000000100010000000000000101000000000000000010000000000000000000000000000000000000000000000000000000000000000000010000000000000
"1,1,1,2,3-pentafluoropropane",134.048836,403.84,0.33,270.0,FCC(F)C(F)(F)F,01000000100000010000000000100000000000000000010000000000000000000000000000000000100000010000000000000000000000000010000000000000
"1,1,1,2-tetrabromoethane",345.65388,800.13,0.544,523.15,BrCC(Br)(Br)Br,00000000000000000000100000000000000000000000000000000000000000100000000000000000110000001000000000000000000000000010000000010000
"1,1,1,2-tetrabromopropane",359.68076,788.99,0.552,523.15,CC(Br)C(Br)(Br)Br,01000000000000000000000000010000010000000000000000000000000000100000000000000100010010001000000000000000000000000010000000000000
"1,1,1,2-tetrachloro-2,2-difluoroethane",203.8296064,552.0,0.257,364.65,FC(F)(Cl)C(Cl)(Cl)Cl,00000000100000000001000000000000000100000000010000000000000000001000000000000000000000000000000000000000001000000010000000000000
"1,1,1,2-tetrachloro-2-fluoroethane",185.8391432,598.6,0.289,390.15,FC(Cl)C(Cl)(Cl)Cl,01000000100000000011000000100000000100000000000100000000000000000000000000000000000000000000000100000000000000000010000000000000
"1,1,1,2-tetrachloroethane",167.84868,624.0,0.242,403.65,ClCC(Cl)(Cl)Cl,00000000000000000001000000000000000100000000000000000000000000000000000000000000100001000000000000000000001000000010000000000000
"1,1,1,2-tetrachloropropane",181.87556,646.86,0.28,423.15,CC(Cl)C(Cl)(Cl)Cl,01000000000000000011000000011000010100000000000100000000000000000000000000000000000000000000000000000000000000000010000000000000
"1,1,1,2-tetrafluoroethane",102.0314928,374.18,0.327,247.08,FCC(F)(F)F,00000000100000000000000000000000000000000000010000000000000100000000000000000000100001010000000000000000000000000010000000000000
"1,1,1,2-tetrafluoropropane",116.0583728,414.81,0.277,272.15,CC(F)C(F)(F)F,01000000100000000000000000110000010000000000010000000000000000000000000000000000000000000000000000100000000000000010000000000000
"1,1,1,2-tetraiodoethane",533.65576,972.04,0.224,614.49,ICC(I)(I)I,00000000000000000000011000000000010000000000000000000000000000000010000000000000100000010000000000000000000000000010000000000000
"1,1,1,2-tetraiodopropane",547.68264,992.1,0.239,636.93,CC(I)C(I)(I)I,01000000010000001000010000010000010000000000000000000010000000000000000000000000000000000000000000000000000000000010000000000000
"1,1,1,3,3,3-hexafluoropropane",152.0392992,406.85,0.321,272.45,FC(F)(F)CC(F)(F)F,00000000100000000000000000000000000000000000010000000000000000000000000000000000100001000000000000000000000000000010001000000000
"1,1,1,3,3-pentafluoropropane",134.048836,427.16,0.33,288.45,FC(F)CC(F)(F)F,01000000100000000000000000100000000000000000010000000000010000000000000000000000100001000100000000000000000000000010000000000000
"1,1,1,3-tetrabromopropane",359.68076,797.25,0.587,533.15,BrCCC(Br)(Br)Br,00000000000000000000000000001000000000000000000000000000000000100000000000000000110000001000000000000000000000010010000000010000
"1,1,1,3-tetrachloropropane",181.87556,654.78,0.31,432.15,ClCCC(Cl)(Cl)Cl,00000000000000000001000000001000000100000000000010000000000000000000000000000000100001000000000000000000001000000010000000000000
"1,1,1,3-tetrafluoropropane",116.0583728,457.1,0.306,302.55,FCCC(F)(F)F,00000000100000000000000000001000000000000000010000000000000000000000000000000000100001010000000000000000000000000010000000000000
"1,1,1,3-tetraiodopropane",547.68264,983.52,0.268,637.37,ICCC(I)(I)I,00000000000000000000010000001000010000000000000000000000000000001010000000000000100000010000000000000000000000000010000000000000
"1,1,1-tribromo-2-methylpropane",294.81158,731.86,0.462,485.73,CC(C)C(Br)(Br)Br,01000000000000000000000000010000010000000000000000000000000000000000000000000100010000001000000000000001000000000010000000000000
"1,1,1-tribromobutane",294.81158,723.31,0.495,484.15,CCCC(Br)(Br)Br,00000000000000000000000000101000010000100000000000000000000000100000000000000000110000001000000000000000000000000010000000000000
"1,1,1-tribromodecane",378.97286,786.93,0.762,585.15,CCCCCCCCCC(Br)(Br)Br,00000000000000000000000000101000010000100000000000000000000000100000000000000000110000001000000000000000000000000010000100000000
"1,1,1-tribromododecane",407.02662,804.01,0.839,613.15,CCCCCCCCCCCC(Br)(Br)Br,00000000000000000000000000101000010000100000000000000000000000100000000000000000110000001000000000000000000000000010000100000000
"1,1,1-tribromoeicosane",519.24166,874.1,0.955,708.15,CCCCCCCCCCCCCCCCCCCC(Br)(Br)Br,00000000000000000000000000101000010000100000000000000000000000100000000000000000110000001000000000000000000000000010000100000000