name,molweight,critical temperature (K),acentric factor,boiling point (K),SMILES,ECFP_Bits
3-methyl-1-hexanamine,115.21872,565.35,0.409,422.15,CC1=CCc2ccccc12,00000000000000000000000000000010010000000000000000000000001000001000000000000000010010100000000010001000100001000000010000000000
3-methyl-1-hexanol,116.20344,606.68,0.764,445.15,CCC(C)(O)C(C)O,01000000100000000000000000010000010000110000000000000000000000000000000000000000100000000000000001010000000000000010100000000000
"3-methyl-1-hexanol, (±)",116.20344,587.2,0.709,443.15,CC1=CC(=O)OC1=O,00000000001000001010000000000000010001000000000000000000001000001000000000000000010010000000000000001000100000000000000000000000
3-methyl-1-hexene,98.18816,528.0,0.306,357.05,CC(C)C(C)S,01000000000000000000000000010000010000001000000000000000000000000000000000000000000000000000000000000100000011000000000000000000
3-methyl-1-hexyne,96.17228,542.27,0.27,358.15,CC(C)C(C)O,01000000000000000000000000010100010000010000000000000000000000000000000000000000000000000000000000010000000001000000000000000000
3-methyl-1-nonanol,158.28408,638.09,0.883,487.0,CC(C)=CC(O)=O,00000100001000000000000000000000010000010000000000000010000000000000000000000000100000000000000010000000010000000000000001000100
3-methyl-1-octanol,144.2572,627.23,0.846,473.0,CCC(CO)C(C)C,01000000100000000000000000010000010000110000000000000000000000000000000000000000101000000000001000100000000001000000000000000000
3-methyl-1-pentanol,102.17656,588.0,0.723,425.55,CCC(=C)C(C)C,01100000000000000000000000010000010000110000000000000000000000000000010000000000100000100000000000000000000000000000000000010010
"3-methyl-1-pentanol, (±)",102.17656,581.8,0.582,426.15,CCCC(C)C(CC)CO,01000000100000000000000000110000010000110000000000000000000000000000000000000000101000000000001000110000000000000000000001000000
3-methyl-1-pentene,84.16128,495.0,0.264,327.33,CCC(C)C(CC)CO,01000000100000000000000000010000010000110000000000000000000000000000000000000000101000000000001000100000000000000000000001000000
3-methyl-1-pentyne,82.1454,512.82,0.226,330.85,CCC(C)C(=C)CC,01100000100000000000000000010000010000110000000000000000000000000000000000000000100000100000000010000000000000000000000000010010
3-methyl-1H-indene,130.1894,693.5,0.332,471.15,CCc1sccc1C,00000001000000100000000000000001010100100000000000000000001000010000000000000000110000100000000000001000000000010000000000000000
"3-methyl-2,3-pentanediol",118.17596,670.5,1.105,505.76,CCCCC(C)C(C)O,01000000000000000000000000110100010000110000000000000000000000000000000000000000100000000000000000010000000000000000000101000000
"3-methyl-2,5-furandione",112.08496,721.0,0.57,486.15,CCCCC(C)C(C)=O,01000000001000000001000000110000010000110000000000000000000000000000000000000000100000000000000010010000000000000000000101000100
3-methyl-2-butanethiol,104.21628,579.0,0.283,382.91,CCCC(C)C(C)O,01000000000000000000000000110100010000110000000000000000000000000000000000000000100000000000000000010000000000000000000001000000
3-methyl-2-butanol,88.14968,556.1,0.512,384.65,CCCC(C)C(C)=O,01000000001000000001000000110000010000110000000000000000000000000000000000000000100000000000000010010000000000000000000001000100
"3-methyl-2-butanol, (±)",88.14968,562.34,0.577,386.05,CC(C)C(CO)C(C)C,01000000000000000000000000010000010000010000000000000000000000001000000000000000100000000000001000100000000001000000000000000000
3-methyl-2-butenoic acid,100.11732,676.0,0.389,468.15,CC(C)C(=C)C(C)C,01000001000000000000000000010000010000010000000000000000000000000000010000000000000000100000000000000000000000000000000000000010
3-methyl-2-ethyl-1-butanol,116.20344,596.52,0.731,435.15,CC(C)c1cc2ccccc2cc1C,01000000000000000000000000010000010000000000000000000000001000011000000000000000010000100000000000001000000101010000000000000000
3-methyl-2-ethyl-1-butene,98.18816,535.82,0.288,359.52,CC(C)c1c(C)cccc1O,01000000000000000000000000010000010000010000000000000000001000001010000100000000010000100010000000001000000000010000000000000000
3-methyl-2-ethyl-1-hexanol,144.2572,621.0,0.814,466.15,CCCCCCC(C)C(C)O,01000000000000000000000000110100010000110000000000000000000000000000000000000000100000000000000000010000000000000000000101000000
3-methyl-2-ethyl-1-pentanol,130.23032,607.86,0.773,450.0,CCCCCC(C)C(C)O,01000000000000000000000000110100010000110000000000000000000000000000000000000000100000000000000000010000000000000000000101000000
3-methyl-2-ethyl-1-pentene,112.21504,561.5,0.332,384.65,CCCCCC(C)C(C)=O,01000000001000000001000000110000010000110000000000000000000000000000000000000000100000000000000010010000000000000000000101000100
3-methyl-2-ethylthiophene,126.2224,652.0,0.342,434.15,CCCCCC(C)=CC,00000000000000000000000000101000010000110000000000100010000000000000000000001000100000000000000000000000000000000000000101000000
3-methyl-2-heptanol,130.23032,593.34,0.773,439.25,CCC(C)C(C)O,01000000100000000000000000010100010000110000000000000000000000000000000000000000100000000000000000010000000000000000000001000000
3-methyl-2-heptanone,128.21444,624.0,0.528,437.15,CCC(C)C(C)=O,01000000101000000001000000010000010000110000000000000000000000000000000000000000100000000000000010000000000000000000000001000100
3-methyl-2-hexanol,116.20344,582.81,0.731,425.15,CCCC(C)C(C)O,01000000000000000000000000110100010000110000000000000000000000000000000000000000100000000000000000010000000000000000000001000000
3-methyl-2-hexanone,114.18756,593.86,0.451,413.15,CCCC(C)C(=O)C,01000000001000000001000000110000010000110000000000000000000000000000000000000000100000000000000010010000000000000000000001000100
3-methyl-2-isopropyl-1-butanol,130.23032,606.01,0.741,446.15,CCCc1cc2ccccc2cc1C,00000000000000000000000000100000010000100000000000000000001000011000010000000000110000100001000000001000000100010000000000000000
3-methyl-2-isopropyl-1-butene,112.21504,554.89,0.303,377.15,CCCc1c(C)cccc1O,00000000000000000000000000100000010000110000000000000000001000001010000100000000110000100001000000001000000000010010000000000000
3-methyl-2-isopropylnaphthalene,184.28104,817.54,0.507,585.41,CCCC(C)SC,01000000001000000000000000110000011000110000000000000000000000000000000000000000100000000000000000010000000000000000100000000000
3-methyl-2-isopropylphenol,150.22056,719.35,0.509,501.15,CCC(C)SC,01000000101000000000000000010000011000110000000000000000000000000000000000000000100000000000000000000000000000000000100000000000
3-methyl-2-nonanol,158.28408,640.97,0.852,487.0,CCCC(CC)C(C)(CC)CC,01000000100000000000000000100000110000110000000000000000000000000010000000000000100000000000000000010000000000000010000000000000
3-methyl-2-octanol,144.2572,605.01,0.814,454.0,CCC(CC)C(C)(CC)CC,01000000100000000000000000000000110000110000000000000000000000000010000000000000100000000000000000000000000000000010000000000000
3-methyl-2-octanone,142.24132,629.65,0.541,456.62,CCC(CC)CC(C)(CC)CC,01000000100011000000000000000000010000110000000000000000010000000000000000000000100000000000000000000000000000000010000000000000
3-methyl-2-octene,126.24192,593.62,0.411,418.15,CC(=C)CC(O)=O,10000100001000000000000000000000010000010000000000000000000000000000000001000000101000100000000000000000000000000000000001000110
3-methyl-2-pentanol,102.17656,578.0,0.576,407.36,CCC(C)(CC)CCO,00000000100001000000000000001000010000110000000000000000000000000000000000000000100000000100001000000000000000000010000000000000
3-methyl-2-pentanone,100.16068,573.0,0.389,390.55,CCC(C)(CC)C=C,00000000100000000000000000000000010000110000000001000010000000000000000000000100100000100000000000000000000001000010000000000000
"3-methyl-2-pentanone, (±)",100.16068,576.61,0.362,390.65,CCC(C)(CC)C(C)O,01000000100000000000000000010000010000110000000000000000000000000010000000000000100000000000000001010000000000000010000000000000
"3-methyl-2-pentene, cis and trans",84.16128,506.59,0.25,341.05,CCCCCCC(C)(CC)CC,00000000100001000000000000101000010000110000000000000000000000000000000000000000100000000000000000000000000000000010000100000000
3-methyl-2-propylnaphthalene,184.28104,812.35,0.537,585.41,CCCCCC(C)(CC)CC,00000000100001000000000000101000010000110000000000000000000000000000000000000000100000000000000000000000000000000010000100000000
3-methyl-2-propylphenol,150.22056,762.45,0.541,535.0,CCC(C)(CC)CC,00000000100001000000000000000000010000110000000000000000000000000000000000000000100000000000000000000000000000000010000000000000
3-methyl-2-thiahexane,118.24316,608.92,0.351,412.15,CCCCC(C)(O)CC,00000000100000000000000000101000010000110000000000000000000000000000000000000000100000000000000000000000000000000011100100000000
3-methyl-2-thiapentane,104.21628,585.0,0.266,385.15,CCCC=C(C)CC,00100000000000000100000000100000010000110000000000100010000000000000000000000000100000000000000100000000000000000000000001000000
"3-methyl-3,4-diethylheptane",170.33844,649.4,0.461,474.15,CCCC(C)(O)CC,00000000100000000000000000101000010000110000000000000000000000000000000000000000100000000000000000000000000000000011100000000000
"3-methyl-3,4-diethylhexane",156.31156,638.91,0.419,459.15,CCCCCCC(C)(O)CC,00000000100000000000000000101000010000110000000000000000000000000000000000000000100000000000000000000000000000000011100100000000
"3-methyl-3,5-diethylheptane",170.33844,643.92,0.461,470.15,CCCCCC(C)(O)CC,00000000100000000000000000101000010000110000000000000000000000000000000000000000100000000000000000000000000000000011100100000000
3-methyl-3-butenoic acid,100.11732,676.0,0.399,450.0,CCC(C)(O)CC,00000000100000000000000000000000010000110000000000000000000000000000000000000000100000000000000000000000000000000011100000000000
3-methyl-3-ethyl-1-pentanol,130.23032,608.48,0.738,448.0,CCC(C)(CC)OC(C)=O,00000000101100000010000000000000010000110000000000000001000000000000000000000000100000000000000000000001000000000010000001000100
3-methyl-3-ethyl-1-pentene,112.21504,567.4,0.297,385.15,CCCC(CC)(CC)C(C)CC,01000100100000000000000000111000010000110000000000000000000000000000000000000000100000000000000000000000000000010010000000000000
3-methyl-3-ethyl-2-pentanol,130.23032,591.48,0.706,433.0,CCC(C)C(CC)(CC)CC,01000100100000000000000000010000010000110000000000000000000000000000000000000000100000000000000000000000000000010010000000000000
3-methyl-3-ethylnonane,170.33844,649.73,0.489,477.15,CCC(C)C(CC)C(CC)CC,01000000100000000000000000010000010000100000000000000000000000001000000000000000101000000000000000000000000000000000000001000000
3-methyl-3-ethyloctane,156.31156,634.5,0.448,458.85,CCc1cscc1C,00000001000000000000000000000000010100101000000000000000001000000000010000000000110000000000000000001000010000010000000000000000
3-methyl-3-ethylpentane,114.23092,576.5,0.305,391.42,CCC(CC)C(C)(O)CC,01000000100000000000000000000000110000110000000000000000000000000000000000000000100000000000000000000000000000000010100000000000
3-methyl-3-heptanol,130.23032,589.67,0.738,434.15,CCCCCC(CC)C(C)CC,01000000100000000000000000110000010000100000000000000000000000000000000000000000101000000000000000010000000000000000000101000000
3-methyl-3-heptene,112.21504,564.74,0.328,394.15,CCCCC(CC)C(C)CC,01000000100000000000000000110000010000100000000000000000000000000000000000000000101000000000000000010000000000000000000101000000
3-methyl-3-hexanol,116.20344,573.58,0.695,415.95,CCc1ccc(O)cc1C,00000001000000000000000000000000010000110000000000000000001000000010010000000000110000100000000000001000010100010000000000000000
3-methyl-3-nonanol,158.28408,637.32,0.819,482.0,CCCC(O)C(C)CC,01000000100000000000000000110000010000110000000000000000000000000000000000000000100000000000000000010000000000000000000011000000
3-methyl-3-octanol,144.2572,618.98,0.78,462.15,CCCCCC(C)(CC)O,00000000100000000000000000101000010000110000000000000000000000000000000000000000100000000000000000000000000000000011100100000000
3-methyl-3-pentanol,102.17656,575.6,0.432,394.06,CCCC(=O)C(C)CC,01000000101000000000000000111000010000110000000000000001000000000000000000000000100000000000000010000000000000000000000000000100
3-methyl-3-pentyl acetate,144.21384,618.0,0.54,421.15,CCCC(C(C)C)C(C)CC,01000000100000000000000000110000010000100000000000000000000000001000000000000000100000000000000000010000000001000000000001000000
"3-methyl-4,4-diethylheptane",170.33844,653.51,0.461,477.15,CCCCC(C(C)C)C(C)CC,01000000100000000000000000110000010000100000000000000000000000001000000000000000100000000000000000010000000001000000000101000000
"3-methyl-4,4-diethylhexane",156.31156,644.47,0.419,463.15,CC(C)c1ccc(O)cc1C,01000000000000000000000000010000010000010000000000000000001000000010000000000000010000100000000000001000010101010000000000000000
"3-methyl-4,5-diethylheptane",170.33844,641.61,0.491,471.15,CCCCC(O)C(C)CC,01000000100000000000000000110000010000110000000000000000000000000000000000000000100000000000000000010000000000000000000111000000
3-methyl-4-ethyl thiophene,126.2224,641.79,0.342,438.65,CCCCC(=O)C(C)CC,01000000101000000000000000111000010000110000000000000001000000000000000000000000100000000000000010000000000000000000000100000100
3-methyl-4-ethyl-3-hexanol,144.2572,608.58,0.748,452.0,CCCC(CCC)C(C)CC,01000000100000000000000000110000010000100000000000000000000000000000000000000000101000000000000000010000000000000000000001000000
3-methyl-4-ethylnonane,170.33844,642.08,0.519,474.15,CCCCC(CCC)C(C)CC,01000000100000000000000000110000010000100000000000000000000000000000000000000000101000000000000000010000000000000000000101000000
3-methyl-4-ethyloctane,156.31156,625.61,0.478,455.15,CCCc1ccc(O)cc1C,00000000000000000000000000100000010000110000000000000000001000000010010000000000110000100001000000001000010100010000000000000000
3-methyl-4-ethylphenol,136.19368,730.79,0.495,503.15,CCCC(C(C)CC)C(C)(C)C,01000000100000000000000000110000010000100000000000000000000000000000000000000000100000000000000000010000000001000010000001000000
3-methyl-4-heptanol,130.23032,591.45,0.773,437.85,CCC(C)CC(CC)(CC)CC,01000000100000000000000000010000010000110000000000000000010000000000000000000000100000010000000000000000100000000010000000000000
"3-methyl-4-heptanol, (R*,S*)-(±)",130.23032,600.92,0.733,435.15,CCCCC(CC)CC(C)CC,01000000100010000000000000110000010000101000000000000000000000000000000000000000100000010000000000010000000000000000000100000000
3-methyl-4-heptanone,128.21444,624.0,0.528,426.15,CCCC(CC)CC(C)CC,01000000100010000000000000110000010000101000000000000000000000000000000000000000100000010000000000010000000000000000000000000000
3-methyl-4-isopropylheptane,156.31156,622.52,0.449,450.15,CCc1cc(C)cc(O)c1,00000001000000000000000000000001010000110000000000000000001000000010000000000000110000000010000000001000010100000000000000000000
3-methyl-4-isopropyloctane,170.33844,637.53,0.491,468.15,CCc1scc(C)c1,00000001000000001000000000000001010100101000000000000000001000000000000000000000110000000000000000001000000100000000000000000000
3-methyl-4-isopropylphenol,150.22056,732.05,0.509,510.0,CCCC(CC(C)CC)C(C)C,01000000100000000000000000110000010000101000000000000000000000000000000000000000101000010000000000010000000001000000000000000000
3-methyl-4-octanol,144.2572,603.88,0.814,453.15,CC(C)c1cc(C)cc(O)c1,01000000000000000000000000010001010000010000000000000000001000000010000000000000010001100000000000001000010100000000000000000000
3-methyl-4-octanone,142.24132,629.65,0.541,447.15,CCCCC(O)CC(C)CC,01000000100000000000000000110000010000111000000000000000000000000000000000000000100000010000000000010000000000000000001100000000
3-methyl-4-propylheptane,156.31156,621.49,0.478,452.15,CCCC(CCC)CC(C)CC,01000000100010000000000000110000010000101000000000000000000000000000000000000000100000010000000000010000000000000000000000000000
3-methyl-4-propyloctane,170.33844,636.66,0.519,470.15,CCCc1cc(C)cc(O)c1,00000000000000000000000000100001010000110000000000000000001000000010000000000000110000000011000000001000010100000000000000000000
3-methyl-4-propylphenol,150.22056,762.45,0.541,535.0,CCCC(CC)CCC(C)CC,01000000100010000000000000110000010000100000000000000000000000000000000000000000100000010000000000010000000000000000000000000000
3-methyl-4-tert-butylheptane,170.33844,638.14,0.432,463.15,CCC(C)CCC(CC)CC,01000000100010000000000000010000010000100000000000000000000000000000000000000000100000010000000000010000000000000000000000000000
"3-methyl-5,5-diethylheptane",170.33844,646.66,0.461,472.15,CCc1ccc(C)cc1O,00000001000000000000000000000001010000110000000000000000001000000010010100000000110000100000000000001000000100000000000000000000
3-methyl-5-ethylnonane,170.33844,633.95,0.519,468.15,CCC(C)CCCC(CC)CC,01000000100010000000000000010000010000100000000000000000000000000000000000000000100000010000000000010000000000000000000100000000
3-methyl-5-ethyloctane,156.31156,617.37,0.478,449.15,CN(C)c1cccc(C)c1,00000000000100000000000000000001010010000000000000000000001000001000000010000000010000100000000000001000000100000100000000000000
3-methyl-5-ethylphenol,136.19368,739.51,0.495,509.15,CCC1=CC(=CC(=C1)C)O,00000001000000000000000000000001010000110000000000000000001000000010000000000000110000000010000000001000010100000000000000000000
3-methyl-5-ethylthiophene,126.2224,641.79,0.342,427.35,CCC\C(C)=C/C,00000000000000000000000000101000010000110000000000100010000000000000000000001000100000000000000000000000000000000000000001000000
3-methyl-5-isopropyloctane,170.33844,633.44,0.491,465.15,CC\C(C)=C/C,00100000000000000000000000000000010000110000000000100010000000000000000000001000100000000000000000000000000000000000000001000000
3-methyl-5-nonanol,158.28408,634.39,0.852,482.0,CC\C=C(C)/CC,00100000000000000000000000000000010000110000001000100010000000000000000000000000100000000000000100000000000000000000000001000000
3-methyl-5-propyloctane,170.33844,632.6,0.519,467.15,CCCC(CCC)CC(C)CC,01000000100010000000000000110000010000101000000000000000000000000000000000000000100000010000000000010000000000000000000000000000
3-methyl-5-propylphenol,150.22056,756.97,0.541,531.15,CCC\C(C)=C\C,00000000000000000000000000101000010000110000000000100010000000000000000000001000100000000000000000000000000000000000000001000000
3-methyl-6-ethylnonane,170.33844,639.37,0.519,472.15,CC\C(C)=C\C,00100000000000000000000000000000010000110000000000100010000000000000000000001000100000000000000000000000000000000000000001000000
3-methyl-6-ethylphenol,136.19368,722.37,0.495,497.35,CC/C=C(C)/CC,00100000000000000000000000000000010000110000001000100010000000000000000000000000100000000000000100000000000000000000000001000000
3-methyl-7-ethylnonane,170.33844,640.72,0.519,473.15,CNCC(O)CO,11000000000000000000001000000000010000010000000000000000000000000000000000010000100000000000001000110000000000000000001000000000
"3-methyl-N,N-dimethylaniline",135.20896,705.58,0.413,485.15,Cc1cccc(C=O)c1,00000000001000000000000000000001010000010000000000000010001000001000000000000000010000100000000000001000000110000100000000000000
3-methyl-cis-2-heptene,112.21504,574.35,0.351,395.15,Cc1cccc(CO)c1,00000000000000000000000000000001010000010000000000000000001000001000010000000000110000100010001000001000000100000000000000000000
3-methyl-cis-2-hexene,98.18816,549.51,0.307,370.41,Cc1cccc(c1)c2ccccc2,00000000100000000000000000000001010000000000000000000000001000001000000000000000010000100000000000001000000100000000000000000000
3-methyl-cis-2-pentene,84.16128,515.0,0.259,340.85,CC(C)CC=O,01000100001000000000000000010000010000000000000000000011000000000000000000000000100000000000000000000000100010000000000000000000
3-methyl-cis-3-heptene,112.21504,572.89,0.351,394.15,CC(C)CC#N,01000000010000000000001000010000011000000000000000000001000000000100000000000000100000000000000000000000100000000000000000000000
3-methyl-cis-3-hexene,98.18816,546.75,0.307,368.55,CC(C)CC(O)=O,01000100001000000000000000010000010000010000000000000001000000000000000001000000100000000000000000000000000000000000000000000100
3-methyl-trans-2-heptene,112.21504,574.35,0.351,395.15,CCCC(=O)OCCC(C)C,01000000001001000001000000111000010000110000000000000001000000000000000000000000100000000000000000010000001000000000000000000100