name,molweight,critical temperature (K),acentric factor,boiling point (K),SMILES,ECFP_Bits
m-ethylaniline,121.18208,695.58,0.433,487.15,CCl,00000000000000000001000000000000010000000000000000000000000000000000000000000000000000000000000000000000000000000010000000000000
m-ethylphenol,122.1668,716.45,0.519,491.57,COC(=O)CCl,10000000001000000001000000010000010000010000000000000001000000000000000001000000100001000000000000000000001000000000000000000100
m-ethylstyrene,132.20528,676.81,0.376,463.2,COC(Cl)=O,10000000001010000001000000000000010000010000100000000001000000000000000001000000000000000000000000000000000000000000000000000100
m-ethylthiophenol,138.2334,724.15,0.374,484.15,C[SiH2]Cl,00000000100000000001000000010000010000000000000000010000000000000000000000000000000000000000000000000000000000000000000000000100
m-ethyltoluene,120.19428,637.15,0.365,434.48,COC(=O)\C=C/C,10000000001000000000000000000001010000010000000001000011000000000000000001001000100000000000000000000000000000000000000000000100
m-fluorotoluene,110.1309832,590.48,0.311,388.15,CC1=CC(=CC=C1)F,00000010100000000000000000000001010000000000000000000000001100001000000000000000010000100000000000001000000100000000000000000000
m-methylstyrene,118.1784,657.0,0.349,444.75,COC(=O)CC#N,10000000001000000000001000000000011000010000000000000001000000000100000001000000100000000000000000000000101000000000000000000100
m-methylthiophenol,124.20652,716.34,0.329,468.25,CCCCCCCCCC(=O)OC,10000000001000000000000000101000010000110000000000000001000000000000000001000000100000000000000000000000001000000000000100000100
m-nitroaniline,138.12592,815.0,0.73,579.0,CCCCCCCCCCSC,00000000001000000000001000100010010000100000000000000000000000000000000000000000100000000000000000000000000000000000100100000000
m-nitrotoluene,137.13812,734.0,0.492,505.0,C[SiH](Cl)Cl,10000000000000000001000000000000010000001000000000000000000100000000000000000000000000000000000000000000001000000000000000000000
m-phenylenediamine,108.143,824.0,0.546,560.0,CCCCCCCCCCCC(=O)OC,10000000001000000000000000101000010000110000000000000001000000000000000001000000100000000000000000000000001000000000000100000100
m-terphenyl,230.30916,883.0,0.651,648.15,CCCCCCCCCCCCSC,00000000001000000000001000100010010000100000000000000000000000000000000000000000100000000000000000000000000000000000100100000000
m-toluenediamine,122.16988,804.0,0.579,557.15,CCOC,00000000000000000000000000000000010000100000000000000001000000000000000001000000100000100000000000000000000001000000000000000000
m-toluidine,107.1552,707.0,0.435,476.52,CCC(C)=O,00100000001000100000000000000000010000110000000000000000000000000000000000000000100000000000000000000000000000000000000001000100
m-xylene,106.1674,617.0,0.327,412.27,CCSC,00000000001000000000001000000000010001100000000000000000000000000000000000000000100000000000000000000000000000000000100000000000
maleic acid,116.07336,773.0,0.998,565.0,CCCCCCCCCCCCCCCCCSC,00000000001000000000001000100010010000100000000000000000000000000000000000000000100000000000000000000000000000000000100100000000
maleic anhydride,98.05808,721.0,0.546,475.15,CCCCCCC(=O)OC,10000000001000000000000000101000010000110000000000000001000000000000000001000000100000000000000000000000001000000000000100000100
maleonitrile,78.07336,704.0,0.558,492.0,CCCCCCCSC,00000000001000000000001000100010010000100000000000000000000000000000000000000000100000000000000000000000000000000000100100000000
malonic acid,104.06236,805.0,0.942,580.0,CCCCCCCCCCCCCCCCSC,00000000001000000000001000100010010000100000000000000000000000000000000000000000100000000000000000000000000000000000100100000000
malononitrile,66.06236,715.0,0.502,491.5,CCCCCC(=O)OC,10000000001000000000000000101000010000110000000000000001000000000000000001000000100000000000000000000000001000000000000100000100