name,molweight,critical temperature (K),acentric factor,boiling point (K),SMILES,ECFP_Bits
"3,trans-4-dimethylthiacyclopentane",116.22728,607.56,0.247,395.12,CC(N)C(C)O,01000000000000000011000000010100010000010000000000000000000000000000000000000000000000000100000000010000000000000000000000000000
"3,trans-5-dimethylcyclohexene",110.19916,597.92,0.26,395.8,CCC(N)C(C)C,01000000100000000011000000010000010000100000000000000000000000000000000000000000100000000000000000000000000001000000000000000010
"3,trans-5-dimethylcyclopentene",96.17228,557.42,0.245,364.55,CCC(C)(N)CC,10000000100000000001000000000000010100110000000000000000000000000000000000000000100000000000000000000000000000000010000000000000
"3,trans-5-dimethylthiacyclohexane",130.25416,641.36,0.262,422.27,CCCCC(N)CC,01000000100000000011000000100000010000100000000000000000000000000000000000000000101000000000000000010000000000000000000100000000
"3,trans-6-dimethylcyclohexene",110.19916,597.92,0.26,395.8,CCCC(N)CC,01000000100000000011000000100000010000100000000000000000000000000000000000000000101000000000000000010000000000000000000000000000
3-(1-methylethoxy)-1-propene,100.16068,536.0,0.38,356.65,CC(Br)C=C,01000000000001000000000000010000010000000000000000000010100000100000000000000000000000101000000000000000000001000000000000000000
3-(chloromethyl)heptane,148.67568,642.41,0.462,445.15,CCC(Br)C=C,01000000100000000000000000000000010000100000000000000010100000101000000000000000100000101000000000000000000001000000000000000000
3-(dimethylamino)-1-propanol,103.16436,626.41,0.841,436.65,BrCC=C,00000000000000000000000000000000000000000000100000000010000000000000000000000000100000101000000000000000000001000001000000010000
3-(methylamino)propylamine,88.15276,612.33,0.533,413.15,CCC(=C)CBr,00100000000000000000000000000000010000110000000000000000000000000000000000000000110010101000000000000000000000000000000000010010
3-(methylthio)propanal,104.17292,650.0,0.417,438.65,CC(Br)C(C)=C,01000000000000000000000000010000010000010000000000000000000000100000000000000001000000101000000000000000000000000000000011000010
3-amino-1-butanol,89.13748,571.82,0.711,426.84,CC(=C)CBr,00000000000000000000000000000000010000010000000000000000000000000000000000000000111000101000000000000000000000000000000001010010
3-amino-1-propanol,75.1106,649.0,0.827,460.65,CCC(Br)C(C)C,01000000100000000000000000010000010000100000000000000000000000100000000000100000100000001000000000000000000001000000000000000000
3-amino-2-butanol,89.13748,571.82,0.711,433.15,CCC(Br)=CC,10100000000000000010000000000000010000110000000000000010000000000000000000001000100000001000000000000000000000000000000000000000
3-amino-2-methylpentane,101.19184,596.83,0.419,408.33,CC(C)(Br)C=C,00000000100000000000000000000000010000000000000000000010000000000000000000010100010000101000000000000000000001000010000000000000
3-amino-3-methylpentane,101.19184,586.93,0.387,398.45,CCC(C)(Br)CC,00000000100000000000100000000000010000110000000000000000000000000000000000000000110000001000000000000000000000000010000000000000
3-aminoheptane,115.21872,565.35,0.409,414.15,CCCCC(CC)N,01000000100000000011000000100000010000100000000000000000000000000000000000000000101000000000000000010000000000000000000100000000
3-aminohexane,101.19184,592.91,0.451,408.77,CCCC(CC)N,01000000100000000011000000100000010000100000000000000000000000000000000000000000101000000000000000010000000000000000000000000000
3-bromo-1-butene,135.00358,586.28,0.292,378.15,CCCC(Br)CC,01001000100000000000000000100000010000100000000000000000000000100000000000000000100000001000000000010000000000000000000000000000
3-bromo-1-pentene,149.03046,580.26,0.337,383.15,CCC(Br)CC,01001000100000000000000000000000010000100000000000000000000000100000000000000000100000001000000000000000000000000000000000000000
3-bromo-1-propene,120.9767,540.2,0.273,343.16,CCC=Cc1ccccc1,00000000000000000000000000000000010000100000001000000010000000001001000000001000110000100000000000001000000000000100000000000000
3-bromo-2-ethyl-1-propene,149.03046,569.33,0.341,376.52,CCCCc1cccc(O)c1,00000000000000000000000000100000010000110000000000000000000000001010000000000000110000100011000000001000010100000000000100000000
3-bromo-2-methyl-1-butene,149.03046,573.71,0.311,376.08,CC(Cl)C=C,01000000000100000011000000010000010000000000000000000010100000000000000000000000000000100000000000000000000001000000000000000000
3-bromo-2-methyl-1-propene,135.00358,569.83,0.297,368.15,CCC(Cl)C=C,01000000100000000011000000000000010000100000000000000010100000000000000000000000100000100000000000000000000011000000000000000000
3-bromo-2-methylpentane,165.07322,594.59,0.373,401.96,ClCC=C,00000000000000000001000000000000000000000000101000000010000000000000000000000000100001100000000000000000000001000000000000000000
3-bromo-2-pentene,149.03046,586.22,0.334,389.15,CCCC(C)(Cl)C(C)(C)C,00000000100000000001000000101000010100100100000000000000000000000000000000000000100000000000000001000000000000000010000000000000
3-bromo-3-methyl-1-butene,149.03046,575.7,0.274,373.41,CCCC(C)(Cl)C(C)C,01000000100000000001000000111000010100100000000000000000000000000000000000000000100000000000000000000001000000000010000000000001
3-bromo-3-methylpentane,165.07322,595.92,0.341,403.15,CCC(C)(Cl)C(C)C,01000000100000000001000000010000010100110000000000000000000000000000000000000000100000000000000000000001000000000010000000000001
3-bromo-cis-2-pentene,149.03046,581.59,0.331,383.15,ClCC(=C)CCl,00000000000000000001000000010000000000010000000000000000000000000000000000000000100011100000000000000000000000000000000000000010
3-bromo-trans-2-pentene,149.03046,581.59,0.331,383.15,CCC(=C)CCl,00100000000000000001000000010000010000110000000000000000000000000000000000000000100011100000000000000000000000000000000000000010
3-bromohexane,165.07322,608.18,0.404,414.45,CC(Cl)C(C)=C,01000000000000000011000000010000010000010000000000000000000000000000000000000001000000100000000000001000000000000000000001000010
3-bromopentane,151.04634,587.16,0.359,391.75,CCC(Cl)C(C)=C,01000000100000000011000000000000010000110000000000000000000000000000000000000001100000100100000000000000000000000000000001000010
3-butenylbenzene,132.20528,682.45,0.356,450.15,CC(=C)CCl,00000000000000000001000000010000010000010000000000000000000000000000000000000000101001100000000000000000000000000000000001000010
3-butylphenol,150.22056,742.23,0.542,520.15,CCC(Cl)C(C)C,01000000100000000011000000010010010000100000000000000000000000000000000000000000100000000000000000000000000001000000000000000000
3-chloro-1-butene,90.55228,524.61,0.233,337.15,CCC(Cl)=CC,00100000000010000001000000000000010000110000000000000010000000000000000000001000100000000000000000000000000000000000000000000000
3-chloro-1-pentene,104.57916,556.39,0.277,366.15,CCC(Cl)(CC)C(C)(C)C,00000000100000000001000000000000010100110000000000000000000000000000000000000010100000000000000001000000000000000010000000000000
3-chloro-1-propene,76.5254,514.15,0.148,318.3,CCCCC(Cl)(CC)CC,00000000000000000001000000101000010100110000000000000000000000000000000000000000100000000000000000010000000000000010000100000000
"3-chloro-2,2,3-trimethylhexane",162.70256,661.88,0.505,470.76,CCC(Cl)(CC)CC,00000000000000000001000000000000010100110000000000000000000000000000000000000000100000000000000000010000000000000010000000000000
"3-chloro-2,3-dimethylhexane",148.67568,642.41,0.462,442.45,CC(C)(Cl)C=C,00000000100000100001000000000000010100000000000000000010000000000000000000000100000000100000000000000000000001000010000000000000
"3-chloro-2,3-dimethylpentane",134.6488,621.08,0.418,401.15,CCCCC(C)(Cl)CC,00000000100000000001000000101000010100110000000000000000000000000000000000000000100000000000000000000000000000000010000100000000
3-chloro-2-(chloromethyl)-1-propene,124.99704,640.0,0.302,411.15,CCCC(C)(Cl)CC,00000000100000000001000000101000010100110000000000000000000000000000000000000000100000000000000000000000000000000010000000000000
3-chloro-2-ethyl-1-propene,104.57916,550.96,0.281,363.15,CCCCCC(C)(Cl)CC,00000000100000000001000000101000010100110000000000000000000000000000000000000000100000000000000000000000000000000010000100000000
3-chloro-2-methyl-1-butene,104.57916,561.72,0.252,366.95,CCC(C)(Cl)CC,00000000100000000001000000000000010100110000000000000000000000000000000000000000100000000000000000000000000000000010000000000000
3-chloro-2-methyl-1-pentene,118.60604,583.61,0.341,394.15,CCC(C(=C)C)Cl,01000000100000000011000000000000010000110000000000000000000000000000000000000001100000100100000000000000000000000000000001000010
3-chloro-2-methyl-1-propene,90.55228,536.47,0.237,345.35,CC(=C)CCl,00000000000000000001000000010000010000010000000000000000000000000000000000000000101001100000000000000000000000000000000001000010
3-chloro-2-methylpentane,120.62192,571.28,0.314,385.0,ClC(Cl)c1cccc(Cl)c1,01001000000000000011000000000000000000000000000001000000000000001000000000000000010001101000000000001000000100000000000000000000
3-chloro-2-pentene,104.57916,561.69,0.275,364.15,CCCCC(Cl)CC,01000000100000000011000000100000010000100000000000000000000000000000000000000000100000000000000000010000000000000010000100000000
"3-chloro-3-ethyl-2,2-dimethylpentane",162.70256,661.88,0.505,470.76,CCCC(Cl)CC,01000000100000000011000000100000010000100000000000000000000000000000000000000000100000000000000000010000000000000010000000000000
3-chloro-3-ethylheptane,162.70256,661.88,0.505,470.76,O=CC1CCC=CC1,00000000001000000000000000000010000000000000010000000010000000001000000000000000010000100000000000000000100010001000000000010000
3-chloro-3-ethylpentane,134.6488,621.08,0.418,416.65,CCCCCCCCCCCCCCCCCC(CC)C1CCCCC1,01001000100000000000000000100010010000100000010000000000001000000000000000000000100000000000000000010000000000000100000100010000
3-chloro-3-methyl-1-butene,104.57916,546.4,0.217,353.15,CCCCCCCC(O)CC,01000000100000000000000000100000010000110000000000000000000000000000000000000000100000000000000000010000000000000000001100000000
3-chloro-3-methylheptane,148.67568,642.41,0.462,442.45,CCCCCCCC(=O)CC,00100000001000000000000010101000010000110000000000000000000000000000000000000000100000000000000000000000000000000000000100000100
3-chloro-3-methylhexane,134.6488,621.08,0.418,408.15,CCCCCCC#CCC,00000000000000000000000100100100011100100000000000000000000000000000000000000000100000000000000000000000000000000000000100000000
3-chloro-3-methyloctane,162.70256,661.88,0.505,470.76,CN(C)CCCN,00000000000110000001000000000001010000000000000010000000000000000000000000000000100001000000000000000000000000000100000100000000
3-chloro-3-methylpentane,120.62192,582.19,0.283,389.15,CCCCCCCCCC(O)CC,01000000100000000000000000100000010000110000000000000000000000000000000000000000100000000000000000010000000000000000001100000000
3-chloro-cis-2-pentene,104.57916,553.1,0.271,363.15,CCCCCCCCCC(=O)CC,00100000001000000000000010101000010000110000000000000000000000000000000000000000100000000000000000000000000000000000000100000100
3-chloro-trans-2-pentene,104.57916,553.1,0.271,363.15,CCCCCCCCC#CCC,00000000000000000000000100100100011100100000000000000000000000000000000000000000100000000000000000000000000000000000000100000000
3-chlorobenzal chloride,195.4748,737.0,0.26,483.65,CCCCCCCCCCCCCCCCC#CCC,00000000000000000000000100100100011100100000000000000000000000000000000000000000100000000000000000000000000000000000000100000000
3-chloroheptane,134.6488,621.08,0.418,417.15,CCOCCCO,00000000000001000000000000000000010000110000000000000001000000000000000010000000100000100100001000000000000000000000000100000000
3-chlorohexane,120.62192,583.1,0.343,396.15,CCc1cccc(SC)c1,00000001001000000000000000000000010000100001000000000000000100001000000000000000110000100010000000001000000100000000100000000000
3-cyclohexene-1-carboxaldehyde,110.1558,655.0,0.364,437.15,CCCCC(CC)CCO,01000000100010000000000000100000010000110000000000000000000000000000000000000000100000000100001000010000000000000000000100000000
3-cyclohexyleicosane,364.69888,853.38,0.708,689.65,CCCC(CC)CCO,01000000100010000000000000100000010000110000000000000000000000000000000000000000100000000100001000010000000000000000000000000000
3-decanol,158.28408,632.85,0.883,483.0,CCCC(CC)C=C,01000000100000000000000000100000011000100000000000000010100000000000000000000000100000100000000000010000000001000000000000000000
3-decanone,156.2682,656.59,0.612,476.15,CCCCCC(CC)CCO,01000000100010000000000000100000010000110000000000000000000000000000000000000000100000000100001000010000000000000000000100000000
3-decyne,138.25292,643.32,0.412,452.45,CCC(CC)CCO,01000000100010000000000000000000010000110000000000000000000000000000000000000000100000000100001000010000000000000000000000000000
3-dimethylamino-1-propylamine,102.17964,637.67,0.591,406.65,CCC(CC)C=C,01000000100000000000000000000000011000100000000000000010100000000000000000000000100000100000000000000000000001000000000000000000
3-dodecanol,186.33784,712.9,0.635,512.53,CCC(CC)C#C,01001000100000000001000000000000011000100000000000000000000000000000000000000010100000100000000000000000000000000000000000000000
3-dodecanone,184.32196,687.46,0.691,519.25,CCC(C)(CC)C(C)(C)C,00000000100000000000000000000000010000110000000000000000000000000000000000000000100000000000001001000000000000000010000000000000
3-dodecyne,166.30668,677.19,0.498,492.55,CCC(C(C)C)C(C)(C)C,01000000100000000000000000010000010000100000000000000000000000000000000000000000100000000000000000000000000001000010000000000000
3-eicosyne,278.52172,758.74,0.744,603.15,CCCC(CC)C(C)(C)C,01000000100000000000000000100000110000100000000000000000000000000000000000000000100000000000000000010000000001000010000000000000
3-ethoxy-1-propanol,104.14908,582.0,0.783,420.0,CCC(C)(C(C)C)C(C)C,01000000100000000000000000010000010000110000000000000000001000000000000000000000100000000000000000000001000000000010000000000000
3-ethyl-(1-thiaethyl)-benzene,152.26028,737.59,0.416,505.76,CCCC(C)(CC)C(C)C,01000000100000000000000000111000010000110000000000000000000000000010000000000000100000000000000000000001000000000010000000000000
3-ethyl-1-heptanol,144.2572,636.71,0.846,480.15,CCC(C)C(CC)C(C)C,01000000100000000000000000010000010000100000000000000000000000001000000000000000100000000000000000000000000001000000000001000000
3-ethyl-1-hexanol,130.23032,608.64,0.806,453.0,CCC(CC(C)C)C(C)C,01000000100000000000000000010000010000101000000000000001000000000000000000000000101000000000000000000000000001000000000000000000
3-ethyl-1-hexene,112.21504,556.24,0.357,383.45,CCc1cc(C)sc1C,00000001000000000000000000000000011100100000000000000000011000000000010000000000110000000000000000001000000100000000000000000000
3-ethyl-1-octanol,158.28408,631.54,0.883,482.0,CCCCC(CC)C(C)O,01000000100000000000000000110100010000110000000000000000000000000000000000000000101000000000000000010000000000000000000100000000
3-ethyl-1-pentanol,116.20344,598.5,0.764,439.15,CCCC(CC)C(C)O,01000000100000000000000000110100010000110000000000000000000000000000000000000000101000000000000000010000000000000000000000000000
3-ethyl-1-pentene,98.18816,530.0,0.302,357.26,CCCCC(CC)C(C)C,01000000100000000000000000110000010000100000000000000000000000000000000000000000101000000000000000010000000001000000000100000000
3-ethyl-1-pentyne,96.17228,540.76,0.27,357.15,CCCC(CC)C(C)C,01000000100000000000000000110000010000100000000000000000000000000000000000000000101000000000000000010000000001000000000000000000
"3-ethyl-2,2,3-trimethylpentane",142.28468,646.0,0.311,442.66,CCC(CC)C(C)C,01000000100000000000000000010000010000100000000000000000000000000000000000000000101000000000000000000000000001000000000000000000
"3-ethyl-2,2,4-trimethylpentane",142.28468,615.3,0.346,428.46,CCC(CC)C(C)O,01000000100000000000000000010100010000110000000000000000000000000000000000000000101000000000000000010000000000000000000000000000
"3-ethyl-2,2-dimethylhexane",142.28468,611.7,0.369,429.26,CCC(CC)C(C)=O,01000000101000000001000000000000010000110000000000000000000000000000000000000000100001000000000000000000000000000000000001000100
"3-ethyl-2,3,4-trimethylpentane",142.28468,642.3,0.329,442.6,CCC(CC)=CC,00100000000000000000000000000000010000110000000000001010000000000000000000001000100000000000000000000000000000000000000000000000
"3-ethyl-2,3-dimethylhexane",142.28468,626.8,0.359,436.86,CCC(CC)SC,01000000101000000000000000000000011000100000000000000000000000000010000000000000100000000000000000000000000000000000100000000000
"3-ethyl-2,4-dimethylhexane",142.28468,616.1,0.385,433.26,CCC(C)C(C)(CC)CC,01000100100000000000000000010000010000110000000000000000000000000010000000000000100000000000000000000000000000000010000000000000
"3-ethyl-2,5-dimethylhexane",142.28468,603.5,0.397,427.26,CCCCC(O)(CC)CC,00000000100000000000000000101000010000110000000000000000000000000000000000000000100000000000000000000000000000000010100100000000
"3-ethyl-2,5-dimethylthiophene",140.24928,669.0,0.379,456.15,CCCC(O)(CC)CC,00000000100000000000000000101000010000110000000000000000000000000000000000000000100000000000000000000000000000000010100000000000
3-ethyl-2-heptanol,144.2572,606.35,0.814,455.0,CCC=C(CC)CC,00100000000000000000000000000000010000110000001000001010000000000000000000000000100000000000000100000000000000000000000000000000
3-ethyl-2-hexanol,130.23032,595.91,0.773,441.15,CCC(C)(CC)C#C,00000000100000000001000000000000011000110010000000000000000000000000000000000010100000000000000000000000000000000011000000000000
3-ethyl-2-methylheptane,142.28468,610.9,0.415,434.36,CCC(C)(CC)C(C)=O,00000000101000100000000000000000010000110000000000000000000000100000000000000000100000000000000000000000000000000010000001000100
3-ethyl-2-methylhexane,128.2578,588.1,0.378,411.16,CCCCC(C)(CC)CC,00000000100001000000000000101000010000110000000000000000000000000000000000000000100000000000000000000000000000000010000100000000
3-ethyl-2-methylpentane,114.23092,567.0,0.329,388.8,CCCC(C)(CC)CC,00000000100001000000000000101000010000110000000000000000000000000000000000000000100000000000000000000000000000000010000000000000
3-ethyl-2-pentanol,116.20344,582.81,0.731,425.15,CCCC(C)(CC)CC(O)=O,00000100101001000000000000101000010001110000000000000000000000000000000001000000100000000000000000000000000000000010000000000100
3-ethyl-2-pentanone,114.18756,590.99,0.451,411.15,CCCCCC(O)(CC)CC,00000000100000000000000000101000010000110000000000000000000000000000000000000000100000000000000000000000000000000010100100000000
3-ethyl-2-pentene,98.18816,547.66,0.307,369.16,CCC(O)(CC)CC,00000000100000000000000000000000010000110000000000000000000000000000000000000000100000000000000000000000000000000010100000000000
3-ethyl-2-thiapentane,118.24316,598.38,0.351,405.02,CCCC(C(C)C)C(CC)CC,01000000100000000000000000110000010000100000000000000000000000001000000000000000101000000000000000010000000001000000000000000000
"3-ethyl-3,4-dimethylhexane",142.28468,624.5,0.359,435.26,CCC(C(C)C)C(C)=O,01000000101000000001000000010000010000110000000000000000000000000000000000000000100000000000000000000000000001000000000001010100
3-ethyl-3-heptanol,144.2572,609.87,0.78,455.35,CCCC(C)C(CC)CC,01000000100000000000000000110000010000100000000000000000000000000000000000000000101000000000000000010000000000000000000001000000
3-ethyl-3-hexanol,130.23032,586.95,0.738,432.15,CCC(C)C(CC)CC,01000000100000000000000000010000010000100000000000000000000000000000000000000000101000000000000000000000000000000000000001000000
3-ethyl-3-hexene,112.21504,565.63,0.351,389.15,CCc1cnccc1C,00000001000000000000000000000000010000100000000000000000001000000001010000100000110000100000000000001000000000010000000000100001
3-ethyl-3-methyl-1-pentyne,110.19916,594.1,0.359,374.65,CCCCC(O)C(CC)CC,01000000100000000000000000100000010000110000000000000000000000000000000000000000101000000000000000010000000000000000000110000000
3-ethyl-3-methyl-2-pentanone,128.21444,624.0,0.528,426.6,CCCC(CCC)C(CC)CC,01000000100000000000000000100000010000100000000000000000000000000000000000000000101000000000000000010000000000000000000000000000
3-ethyl-3-methylheptane,142.28468,620.0,0.389,436.96,CCC(C)CC(CC)CC,01000000100010000000000000010000010000101000000000000000000000000000000000000000100000010000000000000000000000000000000000000000