name,molweight,critical temperature (K),acentric factor,boiling point (K),SMILES,ECFP_Bits
"1,2-difluoropropane",80.0774464,443.3,0.265,288.15,CC(C)c1cccc(C)c1C,01000000000000000000000000010000010000000000000000000000001000001000000000000000010000100000000000001000000001010000000000001000
"1,2-dihydroxy-3-methylbenzene",124.13932,776.37,0.565,521.15,CCCc1cccc(C)c1C,00000000000000000000000000100000010000100000000000000000001000001000010000000000110000100001000000001000000000010000000000001000
"1,2-dihydroxy-4-methylbenzene",124.13932,791.27,0.565,531.15,CCc1cc(C)c(C)c2ccccc12,00000001000000000000000000000000010000100000000000000000001000001000010000000100110000100000000000001000000100010000000000001000
"1,2-diiodo-2-methylbutane",323.94334,752.99,0.271,496.85,CC(C)c1ccc(C)c(C)c1,01000000000000000000000000010000010000000000000000000000001000000000000000000000010001100000000000001000000100010000000000000000
"1,2-diiodo-2-methylpropane",309.91646,735.41,0.227,473.97,CCCc1ccc(C)c(C)c1,00000000000000000000000000100000010000100000000000000000001000000000000000000000110000100011000000001000000100010000000000000000
"1,2-diiodo-3-methylbutane",323.94334,750.13,0.302,499.2,CCc1ccc2ccc(C)c(C)c2c1,00000001000000000000000000000000010000100000000000000000001000010000000000000100110000100010000000001000000100010000000000001000
"1,2-diiodobutane",309.91646,726.41,0.281,476.76,CCC(CI)I,01000100100000001000010000000000010000100000000000000000000000000000000000000000100000010100000000000000000000000000000000000000
"1,2-diiodoethane",281.8627,749.91,0.223,473.16,CC1=C(C)CCCC1,00001000000000000000000000000010010000001000000000000000001000000000000000100000000000000000000000001000000000000000000000000000
"1,2-diiodopentane",323.94334,744.5,0.332,499.64,CC1CCCC1C,00001000000000000000000000000110010000000000010000000000000000000001000000000000000000000000000000000000000000000000000000010000
"1,2-diiodopropane",295.88958,780.49,0.237,500.16,CC1=C(C)CCC1,00001000000000000000000000000010010000001000000000000000001000000000000000100000000000000000000000001000000000000000000000000000
"1,2-diisopropylbenzene",162.27492,697.15,0.437,477.15,Cc1ccc2ccccc2c1C,00000000000000000000000000000000010000000000000000000000001000011000000000000100010000100000000000001000000000010000000000001000
"1,2-dimethoxyethane",90.1222,536.15,0.346,357.2,CC(C)C(C)OC(C)=O,01000000001100000000000000010000010000010000000000000001000000000000010000000000001000000000000000000000000001000000000001000100
"1,2-dimethyl-3-isopropylbenzene",148.24804,679.93,0.411,475.75,CCCC(=O)OC(C)C(C)C,01000000001000000000000000111000010000110000000000000001000000000000010000000000101000000000000000000000001001000000000000000100
"1,2-dimethyl-3-propylbenzene",148.24804,686.65,0.441,483.85,CC(C)C(C)OC=O,01000000001000000000000000010001010000000000000000000011000000000000000000000000001000000000000000000000000011000000000000000000
"1,2-dimethyl-4-ethylnaphthalene",184.28104,811.44,0.536,585.41,CCC(=O)OC(C)C(C)C,01100000001000000000000000010000010000110000000000000001000000000000010000000000101000000000000000000000001001000000000000000100
"1,2-dimethyl-4-isopropylbenzene",148.24804,678.79,0.411,474.95,CC(C)C(C)N,01000000000000000011000000010000010000000000000000000000000000000000000000000000000000000100000000000000000001000000000000000000
"1,2-dimethyl-4-propylbenzene",148.24804,684.1,0.441,482.05,CC(=Cc1ccccc1)c2ccccc2,00000000000000000000000000000000010000010000000000000010000000001000000000000000011000100000000000001000010000000100000011000000
"1,2-dimethyl-7-ethylnaphthalene",184.28104,811.44,0.536,585.41,CCC(Cc1ccccc1)c2ccccc2,01000000100000000000000000000000010000100000000000000000000000001000000000000001110001100010000000001000100000000000000000000000
"1,2-dimethylcyclohexane, (cis+trans)",112.21504,597.51,0.236,399.05,C(Cc1ccccc1)c2ccccc2,00000000000000000000000000000000000000000000000000000000000000001000000000000000110000100011000000001000000000000000000000000000
"1,2-dimethylcyclohexene",110.19916,621.08,0.26,411.13,CC(Cc1ccccc1)c2ccccc2,01000000000000000000000000010000010000000000000000000000000000001000000000000001110001100010000000001000000000000000001000000000
"1,2-dimethylcyclopentane",98.18816,556.47,0.271,370.0,CCCCCCCCCCCCCCCCCCC(O)CO,01000000000000000000000000100000010000110000000000000000000000000000000000000000100000000000001000110000000000000000001100000000
"1,2-dimethylcyclopentene",96.17228,579.44,0.245,378.95,CCC1CO1,00010000000000001000000000000010011000100000001000000000000000000000000000000000100000000000000000000000000000010000000000010000
"1,2-dimethylnaphthalene",156.22728,775.34,0.443,539.46,SCCS,00000000000010000000000000000000000000000000000000010000000000000000000000000000100000000000000000000100000000000000000000000000
"1,2-dimethylpropyl acetate",130.18696,576.0,0.435,401.65,CCC[CH]=[C]=[CH2],00000000000000000100000000100000011000100000000000000010000000001000000000000000100010100000000001000000000000000000000000000000
"1,2-dimethylpropyl butanoate",158.24072,608.0,0.868,462.66,CCCCCCCCCCCCCCCCCC(O)CO,01000000000000000000000000100000010000110000000000000000000000000000000000000000100000000000001000110000000000000000001100000000
"1,2-dimethylpropyl formate",116.16008,573.0,0.409,393.32,CC[CH]=[C]=[CH2],00000000000000000000000000000000011000100000001000000010000000001000000000000000100010100000000001000000000000000000000000000000
"1,2-dimethylpropyl propanoate",144.21384,593.0,0.735,439.78,CC(N)CN,01000000000000000011000000010000010000000000000000000001000000000000000000000000100001000000000000000000000000000000010000000000
"1,2-dimethylpropylamine",87.16496,527.4,0.393,357.15,CC(C)C(C)N,01000000000000000011000000010000010000000000000000000000000000000000000000000000000000000100000000000000000001000000000000000000
"1,2-diphenyl-1-propene",194.27616,796.49,0.465,558.65,C/C(=C\C1=CC=CC=C1)/C2=CC=CC=C2,00000000000000000000000000000000010000010000000000000010000000001000000000000000011000100000000000001000010000000100000011000000
"1,2-diphenylbutane",210.31892,778.3,0.452,564.15,CCC(CC1=CC=CC=C1)C2=CC=CC=C2,01000000100000000000000000000000010000100000000000000000000000001000000000000001110001100010000000001000100000000000000000000000
"1,2-diphenylethane",182.26516,780.0,0.488,553.65,CC1CO1,00010000000000001000000000000110011000000000000000000000000000000000000000000010000000000000000000000000000000000000000000010000
"1,2-diphenylpropane",196.29204,781.16,0.492,556.81,OCCCCCCCCCCCCCCCCCCCCO,00000000000000000000000000000000000000010000000000000000000000000000000000000000100000000100001000000000000000000000000100000000
"1,2-eicosanediol",314.55228,849.99,1.006,693.15,CC(Br)(Br)CCBr,00000000100000000000000000001000010000000000000000000000000000000000000000000000110000001000000000000000000000010010000010010000
"1,2-epoxybutane",72.10692,526.0,0.235,336.57,CC(Cl)(Cl)CCCl,00000000100000000001000000001000010100000000000010000000000000000000000000000000100001000000000000000000000000001010000000000000
"1,2-ethanedithiol",94.20164,663.0,0.257,419.2,CC(F)(F)CCF,00000000100000000000000000101000010000000000010000000000000000000000000000000000100001010000000000000000000000000010000000000000
"1,2-hexadiene",82.1454,526.0,0.276,349.15,CC(I)(I)CCI,00000000100000000000010001001000010000000000000000000000000000001000000000000000100000010000000000000000000000000010000000000000
"1,2-nonadecanediol",300.5254,831.78,1.074,679.15,CCCCCCCCCCCCCCCCCC(CO)O,01000000000000000000000000100000010000110000000000000000000000000000000000000000100000000000001000110000000000000000001100000000
"1,2-pentadiene",68.11852,500.0,0.154,318.01,C1=CC=CC=CC=C1,00000000000000000000000000000000000000000000000000000000000000000000000000000000010000000000001000000000000000000000000000000000
"1,2-propanediamine",74.12588,587.0,0.474,392.45,Cc1cc(C)c2c(C)ccc(C)c2c1,00000000000000000000000000000001010000000000000000000000001000001000000000000100010000100000000000001000000100010000000000000000
"1,2-propanediamine, (±)",74.12588,587.0,0.474,392.65,C1C=CC=CC=C1,00000000000100000000000000000010000000000000000000000000000000000000000000000000010000000000001000000000100000000000000000000000
"1,2-propanediol (propylene glycol)",76.09532,626.0,1.107,460.75,CC(C)(C)c1cc(cc(c1)C(C)(C)C)C(C)(C)C,00000000110000000000000000000000010000000000000000000000000100000000000000000000010000000000000000001000000100000010000000000000
"1,2-propanediol 1-methacrylate",144.17048,663.0,0.754,485.0,Nc1nc(N)nc(N)n1,00000000000000000001000001000000000000000000000001000000000000010000000000000000000000000000000000001000000000000000000000100000
"1,2-propylene oxide",58.08004,482.25,0.268,307.65,Clc1cc(Cl)cc(Cl)c1,00000000000000000001000000000000000000000000000001000000000000000000000000000000010000001000000000001000000100000000000000000000
"1,20-eicosanediol",314.55228,873.91,0.993,712.15,CCc1cc(CC)cc(CC)c1,00000001000000000000000000000000010000100000000000000000000000000000000000000000110000000010000000001000000100000000000000000000
"1,3,3-tribromobutane",294.81158,684.47,0.495,458.15,CC(C)c1cc(cc(c1)C(C)C)C(C)C,01000000000000000000000000010000010000000000000000000000000000000000000000000000010001100000000000001000000100000000000000000000
"1,3,3-trichlorobutane",161.45768,633.65,0.3,420.0,CCc1c(C)cc(C)cc1C,00000001000000000000000000000001010000100000000000000000001000000000000000000000110000000000000000001000000100010010000000000000
"1,3,3-trifluorobutane",112.0947896,429.82,0.298,285.5,Cc1cc(C)c2cccc(C)c2c1,00000000000000000000000000000001010000000000000000000000001000001000000000000100010000100000000000001000000100010000000000000000
"1,3,3-triiodobutane",435.81299,867.15,0.269,567.11,[O-][N+](=O)c1cc(cc(c1)[N+]([O-])=O)[N+]([O-])=O,00000000001000000000000000000000000000000001000000000000000000000000001000010000010000000000000000001000000100000100000000100000
"1,3,5,-trimethylcyclohexane",126.24192,621.31,0.29,411.0,Cc1cc(C)c2cc(C)c(C)cc2c1,00000000000000000000000000000001010000000000000000000000001000010000000000000100010000000000000000001000000100010000000000000000
"1,3,5,7-cyclooctatetraene",104.15152,642.55,0.244,413.16,Cc1cc(C)c2c(C)cc(C)cc2c1,00000000000000000000000000000001010000000000000000000000001000011000000000000000010000000000000000001000000100010000000000000000
"1,3,5,8-tetramethylnaphthalene",184.28104,810.54,0.535,585.41,Cc1ccc2c(C)cc(C)cc2c1,00000000000000000000000000000001010000000000000000000000001000010000000000000100010000100000000000001000000100010000000000000000
"1,3,5-cycloheptatriene",92.14052,593.9,0.324,388.65,Cc1ccc2cc(C)cc(C)c2c1,00000000000000000000000000000001010000000000000000000000001000010000000000000100010000100000000000001000000100010000000000000000
"1,3,5-tri-tert-butylbenzene",246.4362,754.52,0.742,521.25,CC(C)c1ccc(C)c2c(C)cc(C)cc12,01000000000000000000000000010001010000000000000000000000001000001000000000000100010000100000000000001000000101010000000000000000
"1,3,5-triazine-2,4,6-triamine",126.12108,1017.0,0.695,704.0,Cc1cc(C)c2c(C)cccc2c1,00000000000000000000000000000001010000000000000000000000001000011000000000000000010000100000000000001000000100010000000000000000
"1,3,5-trichlorobenzene",181.44792,718.0,0.36,481.55,CSCCCSC,00000000001000000000001000000010010000000000000000000000000000000000000000000000100000000000000000000000000000000000100100000000
"1,3,5-triethylbenzene",162.27492,678.0,0.508,489.05,CC(N)CCN,01000000000000000011000000010000010000000000000010000001000000000000000000000000100001000000000000010000000000000000000000000000
"1,3,5-triisopropylbenzene",204.35556,741.0,0.638,511.15,CC(O)CCO,01000000000000000100000000010000010000010000000000000000000000000000000000000000100000000100001000010000000000000000000000000000
"1,3,5-trimethyl-2-ethylbenzene",148.24804,688.22,0.441,485.55,C1CC=CC=C1,00000000000000000000000000000010000000000000000000000000000000000000000000000000010000000000001000000000100000000000000000010000
"1,3,5-trimethylnaphthalene",170.25416,786.07,0.492,557.65,C1CCC=CC=CC1,00001000000000000000000000000010000000000000000000000000000000000000000000000000010000000000001000000000100000000000000000010000
"1,3,5-trinitrobenzene",213.10644,846.0,0.862,629.6,CC(C)(C)c1cccc(c1)C(C)(C)C,00000000110000000000000000000000010000000000000000000000000100001000000000000000010000100000000000001000000100000010000000000000
"1,3,6,7-tetramethylnaphthalene",184.28104,810.54,0.535,585.41,CCC(N)CCN,01000000100000000011000000000000010000100000000010000000000000000000000000000000101001000000000000010000000000000000000000000000
"1,3,6,8-tetramethylnaphthalene",184.28104,807.6,0.524,576.21,CC(C)(CBr)CBr,00000000100000000000100000000000010000000000000000000000000000000000000000010000100000001000000000000000000000000010000000010000
"1,3,6-trimethylnaphthalene",170.25416,779.72,0.492,553.15,BrCC(CBr)CBr,01000000000010000000000000000000000000000000000000000000000000000000000000000000100000001001000000000000000000000000000000010000
"1,3,7-trimethylnaphthalene",170.25416,779.72,0.492,553.15,CCC(CBr)CBr,01000000100010000000000000000000010000100000000000000000000000000000000000000000100000001001000000000000000000000000000000010000
"1,3,8-trimethyl-5-isopropylnaphthalene",212.3348,808.25,0.605,581.25,CC(Br)C(C)CBr,01000000000000000000000000010000010000000000000010000000000000100000000000000000100000001001000000000000000000000000000001010000
"1,3,8-trimethylnaphthalene",170.25416,786.77,0.492,558.15,CC(CBr)CBr,01000000000000000000000000010000010000000000000000000000000000000000000000000000100000011001000000000000000000000000000000010000
"1,3-bis(methylthio)propane",136.28228,657.5,0.358,364.15,CC(C)(Br)CCBr,00000000100000000000000000001000010000000000000000000000000000000000000000000000110000101000000000000000000000010010000000010000
"1,3-butanediamine",88.15276,612.33,0.533,419.15,CC(Br)CCBr,01000000000000000000000000010000010000000000000000000000000000100000000000000000100000001000000000010000001000010000000000010000
"1,3-butanediol",90.1222,676.0,0.704,481.38,CCC(Br)CCBr,01001000100000000000000000000000010000100000000000000000000000100000000000000000100000001000000000010000000000010000000000010000
"1,3-cyclohexadiene",80.12952,558.0,0.231,353.49,BrCCCBr,00000000000000000000000000000000000000000000000000000000000000000000000000000000100000001000000000000000000000010000000100010000
"1,3-cyclooctadiene",108.18328,645.0,0.286,416.15,CC(Cl)C=CCl,01000010000100000011000000010000010000000000000000000010000000000000000000000000000000001000000000000000000000000000000000000001
"1,3-di-tert-butylbenzene",190.32868,712.89,0.565,523.94,CC(C)(CCl)CCl,00000000100000000001000000000000010000000000000000000000000000000000000000010000100001000000000000000000001000000010000000000000
"1,3-diaminopentane",102.17964,637.67,0.591,437.15,CC(CCl)(CCl)CCl,00000000100001000001000000000000010000000000000000000000000000000000000000000000100001000000000000000000001000000010000000000000
"1,3-dibromo-2,2-dimethylpropane",229.9424,686.65,0.382,456.15,ClCC(CCl)CCl,01000000000010000001000000000000000000000000000000000000000000000000000000000000100001000000000000000000000000000000010000000000
"1,3-dibromo-2-(bromomethyl)propane",294.81158,724.93,0.565,493.15,C(C(CBr)CBr)Br,01000000000010000000000000000000000000000000000000000000000000000000000000000000100000001001000000000000000000000000000000010000
"1,3-dibromo-2-ethylpropane",229.9424,661.07,0.414,442.89,CCC(CCl)CCl,01000000100010000001000000000000010000100000000000000000000000000000000000000000100001000000000000000000000000000000010000000000
"1,3-dibromo-2-methylbutane",229.9424,659.19,0.448,445.24,CC(Cl)C(C)CCl,01000000000000000011000000010000010000000000000000000000000000000000000000000000100001000000000000000000000000000000010001000000
"1,3-dibromo-2-methylpropane",215.91552,672.32,0.435,448.15,CC(CCl)CCl,01000000000000000001000000010000010000000000000000000000000000000000000000000000100001010000000000000000000000000000010000000000
"1,3-dibromo-3-methylbutane",229.9424,661.07,0.414,442.89,OC(CCl)CCl,01000000000000000001000000000000000000010000000000000000000000000000000000000000100001000000000000010000000000000000011000000000
"1,3-dibromobutane",215.91552,672.32,0.435,448.15,CC(C)(Cl)CCCl,00000000100000000001000000001000010100000000000010000000000000000000000000000000100001001000000000000000000000000010000000000000
"1,3-dibromopentane",229.9424,680.24,0.48,463.15,ClCc1cc(Cl)cc(Cl)c1,00000000000000000001000000000000000000000000000001000000000000000000000000000000110011001010000000001000000100000000000000000000
"1,3-dibromopropane",201.88864,669.94,0.422,440.45,C(CBr)CBr,00000000000000000000000000000000000000000000000000000000000000000000000000000000100000001000000000000000000000010000000100010000
"1,3-dichloro-1-butene",124.99704,640.0,0.302,398.15,CC(Cl)CCCl,01000000000000000011000000010000010000000000000010000000000000000000000000000000100001010000000000010000000000000000000000000000
"1,3-dichloro-2,2-dimethylpropane",141.0398,629.69,0.291,419.15,CCC(Cl)CCCl,01000000100000000011000000000000010000100000000010000000000000000000000000000000100001000000000000010000000000000010000000000000
"1,3-dichloro-2-(chloromethyl)-2-methylpropane",175.48456,635.09,0.345,447.65,ClCCCCl,00000000000000000001000000000000000000000000000010000000000000000000000000000000100001000000000000000000000000000000000100000000
"1,3-dichloro-2-butene, cis and trans",124.99704,640.0,0.302,401.15,CCC(CC1CCCCC1)CC2CCCCC2,01001000100010000000000000000110010000100000010000000010000000000000000000000000100000000000000000000000000000000000000000010000
"1,3-dichloro-2-ethylpropane",141.0398,617.7,0.352,418.0,CC(CC1CCCCC1)CC2CCCCC2,01001000000000000000000000010110010000000000010000000010000000000000000000000000100000010000000000000000000000000000000000010000
"1,3-dichloro-2-methylbutane",141.0398,622.78,0.323,418.0,CC(CCC1CCCCC1)C2CCCCC2,01001000000000000000000000010110010000000000010000000000001000001000000000000000100000000000000000010000000000000000000000010000
"1,3-dichloro-2-methylpropane",127.01292,616.35,0.308,408.15,C1CCC(CC1)CCCC2CCCCC2,00001000000000000000000000000110000000000000010000000000000000001000000000000000100000000000000000000000000000000000000100010000
"1,3-dichloro-2-propanol",128.98544,633.0,0.7,447.45,C(C(CCl)O)Cl,01000000000000000001000000000000000000010000000000000000000000000000000000000000100001000000000000010000000000000000011000000000
"1,3-dichloro-3-methylbutane",141.0398,627.97,0.291,419.85,CCC1CCC(CC)C1,00000000000010000000000000000110010000100000011000000000000000000000000000000000100000000000000000000000000000000000000000010000
"1,3-dichloro-5-(chloromethyl)benzene",195.4748,737.0,0.26,483.65,CC(C)(CF)CF,00000000100000000000000000000000010000000000000000000000000100000000000000010000100000010000000000000000000000000010000000000000
"1,3-dichloro-trans-2-butene",124.99704,618.0,0.242,402.0,FCC(CF)CF,01000000100010000000000000000000000000000000000000000000000000000000000000000000100000010000000000000000000000000000000000000000
"1,3-dichlorobutane",127.01292,614.09,0.308,406.65,CCC(CF)CF,01000000100010000000000000000000010000100000000000000000000000000000000000000000100000010000000000000000000000000000000000000000
"1,3-dichloropentane",141.0398,632.7,0.352,428.15,CC(F)C(C)CF,01000000100000000000000000110000010000000000000000000000000000000000000000000000100000010000000100000000000000000000000001000000
"1,3-dichloropropane",112.98604,603.0,0.292,393.55,CC(CF)CF,01000000100000000000000000010000010000000000000000000000000000000000000000000000100000010000000000000000000000000000000000000000
"1,3-dichloropropene; (cis+trans)",110.97016,577.0,0.206,380.65,CC(C)(F)CCF,00000000100000000000000000001000010000000000010000000000000100000000000000000000100001010000000000000000000000000010000000000000
"1,3-dicyclohexyl-2-ethylpropane",236.44108,776.31,0.551,579.15,CC(F)CCF,01000000100000000000000000110000011000000000000000000000000000000000000000000000100001010000000000010000000000000000000000000000