name,molweight,critical temperature (K),acentric factor,boiling point (K),SMILES,ECFP_Bits
"2,5,5-trimethylnonane",170.33844,634.33,0.461,463.15,Cc1cc(Cl)ccc1Cl,00000000000000000001000000000000010000000000000001000000001000000000000000000000010000101000000000001000000100110000000000000000
"2,5,5-trimethyloctane",156.31156,619.43,0.419,445.15,CCc1ccc(CC)c(O)c1,00000001000000000000000000000000010000110000000000000000000000000010010100000000110000100010000000001000000100000000000000000000
"2,5,6,6-tetramethyloctane",170.33844,646.41,0.432,469.15,C1OCC=C1,00000000000100001000000000000010000000000000000000000000000000000000000000000000010000000000000000000000100000000010000000000000
"2,5,6-trimethyl-2-heptanol",158.28408,622.45,0.757,466.15,CSc1cc(C)ccc1C,01000000001000000000000000000001010000000000000000000000001100000000000000000000010000100000000000001000000100010000100000000000
"2,5,6-trimethylnonane",170.33844,638.89,0.491,469.15,CC(=C)CCC(C)=C,00000000000000000000000000001000010000010000000000000000000000000000000000000000101000100000000000000000000000000000000001000010
"2,5,6-trimethyloctane",156.31156,623.9,0.449,451.15,CC(C)CCC(C)CO,01000000000000000000000000010000010000010000000000000001000000000000000000000000100000010000001000110000000000000000000000000000
"2,5,7-trimethylnonane",170.33844,636.16,0.491,467.15,CC(C)CCC(C)=C,01000000000000000000000000011000010000010000000000000001000000000000000000000000101000100000000000010000000000000000000001000010
"2,5,8-trimethylnonane",170.33844,633.44,0.491,465.15,CC(C)=CC=C(C)C,00000000000000000000000000000000010000010000000000000010000000000000000000000000000000000000000000000000010000000000000001000000
"2,5-dibromohexane",243.96928,684.21,0.526,481.15,CC(C)(CCC(C)(C)c1ccccc1)c2ccccc2,00000000110000000000000000001000010000000000000000000000001000001000000000000000110000100000000000001000000000000010000000000000
"2,5-dibromohexane, (R*,R**)-(±)-",243.96928,684.21,0.526,486.03,CCC(C)CCC(C)(C)O,01000000100000000000000000011000010000110000000000000000000000000000000000000000100000010000000000010000000000000010100000000000
"2,5-dichloro-2,5-dimethylhexane",183.12044,672.06,0.485,491.48,CC(C)CCC(C)(C)O,01000000100000000000000000011000010000010000000000000001000000000000000000000000100000010000000000010000000000000010100000000000
"2,5-dichlorohexane, (R*,R*)-(±)-",155.06668,633.09,0.397,450.15,CC(C)CC=C(C)C,01000100000000000000000000010000010000010000000000000011000000000000000000000000100000000000000100000000010000000000000001000000
"2,5-dichlorotoluene",161.03004,710.0,0.343,473.15,CCC(CC)(CC(C)C)C(C)C,01000000000000000000000000010000010000110000000000000001010000000000000000000000100000000000000000000001000000010010000000000000
"2,5-diethylphenol",150.22056,712.57,0.541,500.0,CCC(C(C)C)C(CC)C(C)C,01000000100000000000000000010000010000100000000000000000000000001000000000000000100000000000000000000000000001000000000000000000
"2,5-dihydrofuran",70.09104,542.0,0.22,339.0,CCC(C)CC(CC)C(C)C,01000000100000000000000000010000010000101000000000000000000000000000000000000000101000010000000000000000000001000000000000000000
"2,5-dimethyl-(1-thiaethyl)-benzene",152.26028,743.84,0.415,510.74,CCc1cc2c(C)cccc2cc1C,00000001000000000000000000000000010000100000000000000000001000011000010000000100110000100000000000001000000100010000000000000000
"2,5-dimethyl-1,5-hexadiene",110.19916,567.0,0.324,387.45,CCCC(C)CC(CC)C(C)C,01000000100000000000000000110000010000101000000000000000000000000000000000000000101000010000000000010000000001000000000000000000
"2,5-dimethyl-1-hexanol",130.23032,610.77,0.773,452.15,CCc1cc(C)cc(O)c1C,00000001000000000000000000000001010000110000000000000000001000000010010100000000110000000000000000001000000100000000000000001000
"2,5-dimethyl-1-hexene",112.21504,561.65,0.332,384.75,CC(C)CC(O)C(C)C,01000000000000000000000000010000010000011000000000000001000000000000000000000000100000000000000000010000000001000000000010000000
"2,5-dimethyl-2,4-hexadiene",110.19916,597.0,0.322,408.41,CC(C)CC(=O)C(C)C,01000000001000000000000000010000010000010000000000000001000000000000010000000000100000000000000000000000000000000000000000000100
"2,5-dimethyl-2,5-diphenylhexane",266.42644,810.0,0.698,619.15,CCC(C)CC(C(C)C)C(C)C,01000000100000000000000000010000010000101000000000000000000000001000000000000000100000010000000000000000000001000000000000000000
"2,5-dimethyl-2-heptanol",144.2572,612.62,0.748,455.0,CC(C)CC(C(C)C)C(C)C,01000000000000000000000000010000010000001000000000000001000000001000000000000000100000000000000000000000000001000000000000000000
"2,5-dimethyl-2-hexanol",130.23032,581.44,0.706,425.65,CCC(C)C(CC)CC(C)C,01000000100000000000000000010000010000101000000000000001000000000000000000000000101000000000000000000000000000000000000001000000
"2,5-dimethyl-2-hexene",112.21504,564.45,0.322,385.35,CCCC(C)C(CC)CC(C)C,01000000100000000000000000110000010000101000000000000001000000000000000000000000101000000000000000010000000000000000000001000000
"2,5-dimethyl-3,3-diethylhexane",170.33844,638.14,0.432,463.15,CCc1cc(C)c(O)cc1C,00000001000000000000000000000000010000110000000000000000001000000010010100000000110000000000000000001000000100010000000000000000
"2,5-dimethyl-3,4-diethylhexane",170.33844,634.39,0.462,463.15,CCC(C)C(CC(C)C)C(C)C,01000000100000000000000000010000010000101000000000000001000000001000000000000000100000000000000000000000000001000000000001000000
"2,5-dimethyl-3-ethylheptane",156.31156,621.14,0.449,449.15,CCCC(C)C(O)CC(C)C,01000000000000000000000000110000010000111000000000000001000000000000000000000000100000000000000000010000000000000000000011000000
"2,5-dimethyl-3-ethylnaphthalene",184.28104,811.44,0.536,585.41,CCCC(CC(C)C)C(C)CC,01000000100000000000000000110000010000101000000000000001000000000000000000000000101000000000000000010000000000000000000001000000
"2,5-dimethyl-3-ethyloctane",170.33844,636.16,0.491,467.15,CCC(C)(CC)CCC(C)C,01000000100001000000000000011000010000110000000000000001000000000000000000000000100000000000000000010000000000000010000000000000
"2,5-dimethyl-3-ethylphenol",150.22056,711.68,0.54,500.0,CCCC(C)(CC)CCC(C)C,01000000100001000000000000111000010000110000000000000001000000000000000000000000100000000000000000010000000000000010000000000000
"2,5-dimethyl-3-hexanol",130.23032,587.0,0.741,432.15,CCC(CC)C(C)CCC(C)C,01000000100000000000000000010000010000100000000000000001000000000000000000000000101000000000000000010000000000000000000001000000
"2,5-dimethyl-3-hexanone",128.21444,624.0,0.528,420.65,CCc1c(C)ccc(C)c1O,00000001000000000000000000000000010000110000000000000000001000000010000000100000110000100000000000001000000000010010000000000000
"2,5-dimethyl-3-isopropylheptane",170.33844,634.39,0.462,463.15,CC(C)\C=C/C(C)C,01000000000000000000000000010000011000000000000000000010000000000000000000000000000000001000000000000000000000000000000000000000
"2,5-dimethyl-3-isopropylhexane",156.31156,616.7,0.421,443.15,CC(C)\C=C\C(C)C,01000000000000000000000000010000011000000000000000000010000000000000000000000000000000001000000000000000000000000000000000000000
"2,5-dimethyl-4-ethylheptane",156.31156,619.75,0.449,448.15,Cc1ccc(C)c(N)c1,00000000000000100001000000000001010000000000000001000000001000000000000000000000010000100000000000001000000100010000000000000000
"2,5-dimethyl-4-ethyloctane",170.33844,633.44,0.491,465.15,Cc1ccc(C)c(c1)c2ccccc2,00000000100000000000000000000001010000000000000000000000001000001000000000000000010000100000000010001000000100010000000000000000
"2,5-dimethyl-4-ethylphenol",150.22056,711.68,0.54,500.0,CCCCCC(C)CCC(C)C,01000000000000000000000000110000010000100000000000000001000000000000000000000000100000010000000000010000000000000000000100000000
"2,5-dimethyl-4-isopropylheptane",170.33844,633.02,0.462,462.15,Cc1oc(C)cc1,00000000000000001000000000000000010000000000000000000000001000000000100000000010010000100000000000001000000000000000000000000000
"2,5-dimethyl-4-octanol",158.28408,613.56,0.822,464.0,CCC(C)CCC(C)C,01000000100000000000000000010000010000100000000000000001000000000000000000000000100000010000000000010000000000000000000000000000
"2,5-dimethyl-4-propylheptane",170.33844,630.72,0.491,463.15,CC(C)CCC(C)C,01000000000000000000000000010000010000000000000000000001000000000000000000000000100000000000000000010000000000000000000000000000
"2,5-dimethyl-5-ethylheptane",156.31156,627.77,0.419,451.15,CCCCC(C)CCC(C)C,01000000000000000000000000110000010000100000000000000001000000000000000000000000100000010000000000010000000000000000000100000000
"2,5-dimethyl-5-ethyloctane",170.33844,638.44,0.461,466.15,CCCC(C)CCC(C)C,01000000000000000000000000110000010000100000000000000001000000000000000000000000100000010000000000010000000000000000000000000000
"2,5-dimethyl-6-ethyloctane",170.33844,640.25,0.491,470.15,Cc1ccc(C)nc1,00000000000000000000000000000001010000000000100000000000001000000001000000000000010000100000000000001000000000000000000000100001
"2,5-dimethyl-6-ethylphenol",150.22056,711.68,0.54,500.0,Cc1ccc2c(C)cccc2n1,00000000000000000000000000000000010000000000000000000000001000011001000001000100010000100000000000001000000000010000000000100000
"2,5-dimethyl-cis-3-hexene",112.21504,550.28,0.317,375.15,CC1CCC(C)O1,01000000000000001000000000000110010000000000010000000000000000000000000000000010000000000000000000000000000000000000000000010000
"2,5-dimethyl-trans-3-hexene",112.21504,550.28,0.317,375.15,Cc1sc(C)cc1,00000000000000000000000000000000011100000000000000000000001000000000000000000000010000100000000000001000000000000000000000000000
"2,5-dimethylaniline",121.18208,695.58,0.433,487.15,Cc1ccc(C)c(S)c1,00000000000000010000000000000001010000000100000000000000001000000000000000000000010000100000000000001100000100010000000000000000
"2,5-dimethylbiphenyl",182.26516,792.44,0.458,549.48,Cc1cc(ccc1[N+]([O-])=O)[N+]([O-])=O,00000000001000000000000000000000010000000001000000000000001000000000001000011000010000100000000000001000000100010100000000100000
"2,5-dimethyldecane",170.33844,638.02,0.519,471.15,Cc1ccc(C)c(O)c1,00000000000000000000000000000001010000010000000000000000001000000010000100000000010000100000000000001000000100010000000000000000
"2,5-dimethylfuran",96.12892,557.13,0.332,366.15,CC(C)CCCC(C)CCCC(C)CCCC(C)C,01000000000000000000000000010000010000000000000000000001000000000000000000000000100000010000000000010000000000000000000100000000
"2,5-dimethylheptane",128.2578,581.1,0.393,409.16,CC(C)CCCC(C)CCCC(C)CCCCC(C)CCCC(C)CCCC(C)C,01000000000000000000000000010000010000000000000000000001000000000000000000000000100000010000000000010000000000000000000100000000
"2,5-dimethylhexane",114.23092,550.0,0.358,382.26,CCCC(C)(C)CCCC(C)C,01000000100000000000000000111000010000100000000000000001000000000000000000010000100000000000000000010000000000000010000100000000
"2,5-dimethylnonane",156.31156,621.49,0.478,452.15,CCC(C)(C)CCCC(C)C,01000000100000000000000000011000010000110000000000000001000000000000000000010000100000000000000000010000000000000010000100000000
"2,5-dimethyloctane",142.28468,603.0,0.44,431.65,CCC(C)C(C)CCCC(C)C,01000000100000000000000000010000010000100000000000000001000000000000000000000000100000000000000000010000000000000000000101000000
"2,5-dimethylpyridine",107.1552,644.2,0.379,430.15,CC(C)CC(C)CC(O)CC(C)C,01000000000000000000000000010000010000011000000000000001000000000000000000000000100000010000000000010000000000000000001000000000
"2,5-dimethylquinoline",157.21508,775.1,0.497,537.65,CC(C)(C)c1ccc2cc(ccc2c1)C(C)(C)C,00000000110000000000000000000000010000000000000000000000000100010000000000000000010000100000000000001000000100000010000000000000
"2,5-dimethyltetrahydrofuran",100.16068,556.78,0.282,365.65,CCC(C)c1cccc(C(C)CC)c1O,01000000100000000000000000010000010000110000000000000000000000001010000000100000110000100000000000001000000001000000001000000000
"2,5-dimethylthiophene",112.19552,627.8,0.297,409.85,Cc1cc(c(O)c(c1)C(C)(C)C)C(C)(C)C,00000000100000000000000000000001010100010000000000000000001100000010000000100000010000000000000000001000000100000010000000000000
"2,5-dimethylthiophenol",138.2334,714.1,0.373,478.15,CC(C)(C)c1cccc(c1O)C(C)(C)C,00000000100000000000000000000000010100010000000000000000000100001010000000100000010000100000000000001000000000000010000000000000
"2,5-dinitrotoluene",182.13572,814.0,0.712,590.0,CC(C)(Cl)CCCC(C)(C)Cl,00000000100000000001000000001000010100000000000000000000000000000000000000000000100000001000000000000000000000000010000100000000
"2,5-xylenol",122.1668,707.05,0.564,484.33,ClCc1c(Cl)cccc1Cl,00000000000000000001000000000000000000000000000001000000000000001000000000000000110011100000000000001000000000100010000000000000
"2,6,10,14-tetramethylpentadecane",268.5266,748.87,0.741,569.15,Cc1c(Cl)cccc1Cl,00000000000000000001000000000000010000000000000001000000001000001000000000000000010000100000000000001000000000100000000000001000
"2,6,10,15,19,23-hexamethyltetracosane",422.82228,863.0,0.915,720.0,CCc1cccc(CC)c1N,00000001000000000001000000000000010000100000000001000000000000001000010000000000110000100000000000001000000000000000000000000000
"2,6,6-trimethylnonane",170.33844,634.33,0.461,463.15,CCc1ccc2cc(CC)ccc2c1,00000001000000000000000000000000010000100000000000000000000000010000000000000000110000100010000000001000000100000000000000000000
"2,6,6-trimethyloctane",156.31156,624.99,0.419,449.15,CCc1cccc(CC)c1O,00000001000000000000000000000000010000110000000000000000000000001010010000100000110000100000000000001000000000000000000000000000
"2,6,7-trimethylnonane",170.33844,642.97,0.491,472.15,CC(C)c1ccc2cc(ccc2c1)C(C)C,01000000000000000000000000010000010000000000000000000000000000010000000000000000010001100000000000001000000100000000000000000000
"2,6,8-trimethylnonanol-4",186.33784,712.9,0.635,498.4,CSc1c(C)cccc1C,00000000001000000000000000000000010000000000000000001000001100001000000000000000010000100000000000001000000000010000100000000000
"2,6-di-sec-butylphenol",206.32808,765.0,0.631,530.65,CCC(C)CCCC(C)CO,01000000100000000000000000010000010000110000000000000000000000000000000000000000100000010000001000110000000000000000000100000000
"2,6-di-tert-butyl-p-cresol",220.35496,724.0,0.679,541.15,CC(C)CCCC(C)(C)O,01000000100000000000000000011000010000010000000000000001000000000000000000000000100000010000000000010000000000000010100100000000
"2,6-di-tert-butylphenol",206.32808,765.0,0.631,527.81,CCC(C)CCC=C(C)C,01000000100000000100000000010000010000110000000000000010000000000000000000000000100000010000000100010000010000000000000001000000
"2,6-dichloro-2,6-dimethylheptane",197.14732,688.79,0.528,517.15,CCC(CCC(C)C)C(C)C,01000000100000000000000000010000010000100000000000000001000000000000000000000000101000000000000000010000000001000000000000000000
"2,6-dichlorobenzyl chloride",195.4748,737.0,0.26,391.15,CCC(C)CCC(CC)C(C)C,01000000100000000000000000010000010000100000000000000000000000000000000000000000101000010000000000010000000001000000000000000000
"2,6-dichlorotoluene",161.03004,710.0,0.343,471.15,CCc1ccc(C)c(O)c1C,00000001000000000000000000000000010000110000000000000000001000000010010000100000110000100000000000001000000000010000000000001000
"2,6-diethylaniline",149.23584,678.0,0.912,508.65,CC(C)CCC(O)C(C)C,01000000000000000000000000010000010000010000000000000001000000000000000000000000100000000000000000010000000001000000000010000000
"2,6-diethylnaphthalene",184.28104,807.0,0.512,576.0,CC(C)CCC(=O)C(C)C,01000000001000000000000000011000010000010000000000000001000000000000010000000000100000000000000000010000000000000000000000000100
"2,6-diethylphenol",150.22056,699.96,0.541,491.15,CC(C)CC#CC(C)C,01000000010000000000000100010000011000000000000000000001000010000000000000000000100000000000000000000000000000000000000000000000
"2,6-diisopropylnaphthalene",212.3348,808.25,0.605,552.45,CC(C)CCC(C(C)C)C(C)C,01000000000000000000000000010000010000000000000000000001000000001000000000000000100000000000000000010000000001000000000000000000
"2,6-dimethyl-(1-thiaethyl)-benzene",152.26028,743.84,0.415,510.74,CCC(CC(C)C)CC(C)C,01000000100010000000000000010000010000101000000000000001000000000000000000000000100000000000000000000000000000000000000000000000
"2,6-dimethyl-1,3-dioxan-4-ol acetate, cis and trans",174.19676,669.0,0.582,480.0,CCC(C)CC(CC)CC(C)C,01000000100010000000000000010000010000101000000000000001000000000000000000000000100000010000000000000000000000000000000000000000
"2,6-dimethyl-1-octanol",158.28408,635.71,0.852,483.0,CCc1cc(C)c(O)c(C)c1,00000001000000000000000000000000010000110000000000000000001000000010000000100000110000000010000000001000000100010000000000000000
"2,6-dimethyl-2-heptanol",144.2572,598.01,0.748,444.15,CC(C)CC(O)CC(C)C,01000000000000000000000000010000010000011000000000000001000000000000000000000000100000000000000000010000000000000000001000000000
"2,6-dimethyl-2-octene",140.2688,616.98,0.457,436.15,CC(C)CC(CC(C)C)C(C)C,01000000000000000000000000010000010000001000000000000001000000000000000000000000101000000000000000000000000001000000000000000000
"2,6-dimethyl-3-ethylheptane",156.31156,621.14,0.449,449.15,CCC(C)CC(O)CC(C)C,01000000100000000000000000010000010000111000000000000001000000000000000000000000100000010000000000010000000000000000001000000000
"2,6-dimethyl-3-ethyloctane",170.33844,640.25,0.491,470.15,CCCC(CC(C)C)CC(C)C,01000000000010000000000000110000010000101000000000000001000000000000000000000000100000000000000000010000000000000000000000000000
"2,6-dimethyl-3-ethylphenol",150.22056,711.68,0.54,500.0,CCC(C)C(CC)CCC(C)C,01000000100000000000000000010000010000100000000000000001000000000000000000000000101000000000000000010000000000000000000001000000
"2,6-dimethyl-3-heptanol",144.2572,600.27,0.782,448.15,CCC(C)(CC)CCCC(C)C,01000000100001000000000000011000010000110000000000000001000000000000000000000000100000000000000000010000000000000010000100000000
"2,6-dimethyl-3-heptanone",142.24132,629.65,0.541,445.0,Cc1cccc(C)c1N,00000000000000000001000000000000010000000000000001000000001000001000000000000000010000100000000000001000000000010000000000000000
"2,6-dimethyl-3-heptyne",124.22604,621.49,0.373,403.75,Cc1cccc(C)c1c2ccccc2,00000000100000000000000000000000010000000000000000000000001000001000000000000000010100100000000000001000000000010000000000000000
"2,6-dimethyl-3-isopropylheptane",170.33844,635.48,0.462,463.95,CCCCC(C)CCCC(C)C,01000000000000000000000000110000010000100000000000000001000000000000000000000000100000010000000000010000000000000000000100000000
"2,6-dimethyl-4-ethylheptane",156.31156,612.84,0.449,443.15,CC(C)CC=CC(C)C,01000100000000000000000000010000011000000000000000000011000000000000000000001000100000001000000000000000000000000000000000000000
"2,6-dimethyl-4-ethyloctane",170.33844,630.72,0.491,463.15,CC(C)CCCC(C)C,01000000000000000000000000010000010000000000000000000001000000000000000000000000100000000000000000010000000000000000000100000000
"2,6-dimethyl-4-ethylphenol",150.22056,713.32,0.54,501.15,Cc1ccc2cc(C)ccc2c1,00000000000000000000000000000001010000000000000000000000001000010000000000000000010000100000000000001000000100000000000000000000
"2,6-dimethyl-4-heptanol",144.2572,603.0,0.802,451.0,CCCC(C)CCCC(C)C,01000000000000000000000000110000010000100000000000000001000000000000000000000000100000010000000000010000000000000000000100000000
"2,6-dimethyl-4-isopropylheptane",170.33844,624.8,0.462,456.15,CCC(C)CCCC(C)C,01000000100000000000000000010000010000100000000000000001000000000000000000000000100000010000000000010000000000000000000100000000
"2,6-dimethyl-4-octanol",158.28408,613.56,0.822,468.15,Cc1cccc(C)n1,00000000000000000000000000000000010000000000000000000000001000011001000000000000010000100000000000001000000000000000000000100000
"2,6-dimethyl-4-propylheptane",170.33844,623.36,0.491,457.75,Cc1ccc2nc(C)ccc2c1,00000000000000000000000000000001010000000000000000000000001000010001000001000000010000100000000000001000000100000000000000100000
"2,6-dimethyl-5-ethyloctane",170.33844,637.53,0.491,468.15,Cc1cccc(C)c1C=C,00000000000000000000000000000000010000000000000000000010001000001000000000000000010000100000001000011000000001010000000000000000