name,molweight,critical temperature (K),acentric factor,boiling point (K),SMILES,ECFP_Bits
2-isopropyl-1-pentanol,130.23032,639.93,0.773,473.74,Cc1sc2ccccc2c1,00000000000000000000000000000000011100000000000000000000001000011000000000000000010000100000000000001000000100000000010000000000
2-isopropyl-1-pentene,112.21504,563.69,0.332,386.15,CSc1ccccc1C,01000000001000000000000000000000010000000000000000000000001100001000000000000000010000100000000000001000000000010000100000000000
2-isopropyl-6-(1-methylbutyl)phenol,206.32808,765.0,0.631,527.81,CCC(c1ccccc1)c2ccccc2,01000100100000000000000000000000010000100000000000000000000000001000000000000000110001100000000000001000000000000000000000000000
2-isopropylaniline,135.20896,705.58,0.413,494.15,CCC(C)(O)CO,00000000100000000000000000000000010000110000000000000000000000000000000000000000100000000000001000000000000000000011100000000000
2-isopropylnaphthalene,170.25416,770.24,0.463,541.35,CC(Cc1ccccc1)c2ccccc2,01000000000000000000000000010000010000000000000000000000000000001000000000000001110001100010000000001000000000000000001000000000
2-isopropylphenol,136.19368,714.75,0.464,487.65,CC(C)(N)CN,00000000100000000001000000000000110100000000000000000000000000000000000000000000100001000000000000000000001000000010000000000000
2-isopropylpyridine,121.18208,653.0,0.376,432.95,CC(C)(O)CO,00000000100000000000000000000000010000010000000000000000000000000000000000000000100000010000001000000000000000000011100000000000
2-isopropylthiophene,126.2224,640.96,0.342,426.15,Cc1c(N)cccc1N,00000000000000100001000000000000010000000000000001000000001000001000000000000000010000100000000000001000000000000000000000001000
2-mercaptoethanol,78.13504,629.0,0.672,430.9,CC=CC(C)=C,00000000000000000000000000000001010000010000001000000010000000000000000000001000100000100000000000000000000000000000000001000010
2-methacrylamide,85.10572,741.0,0.421,488.0,CC(CO)CO,01000000000000000000000000010000010000010000000000000000000000000000000000000000100000010000001000100000000000000000000000000000
2-methoxy-1-propanol,90.1222,566.0,0.719,402.65,CC(=C)CC=C,00000000000000000000000000000000010000010000100000000010000000010000000000000000101000100000000000000000000001000000000001000010
2-methoxyethanol,76.09532,564.0,0.733,397.5,COCCO,00000000000001000000000000000000010000010000000000000001000000000000000001000000100000000100001000000000000001000000000000000000
2-methyl-(1-thiaethyl)-benzene,138.2334,718.95,0.371,482.88,CCC(C)CS,01000000100000000000000000010000010000100000000000010000000000000100000000000000100000010000000000000100000000000000000000000000
"2-methyl-1,2-butanediol",104.14908,617.54,1.102,462.15,CCC(C)CO,01000000100000000000000000010000010000110000000000000000000000000000000000000000100000010000001000100000000000000000000000000000
"2-methyl-1,2-propanediamine",88.15276,612.33,0.533,396.15,CCC(C)=C,00100000000000000000000000000000010000110000000000000000000000000000000000000000101000100000000000000000000000000000000001000010
"2-methyl-1,2-propanediol",90.1222,611.21,1.062,451.15,CC(=C)C#C,00000000000000100101000000000000011000010000000000000000000000000000000000000010000000100000000000000000000000000000000001000010
"2-methyl-1,3-benzenediamine",122.16988,804.0,0.58,557.0,CCCCCCCCC(C)C=O,01000000001000000000000100110000010000100000000000000010000000000000000000000000100000000000000000010000000010000000000100001000
"2-methyl-1,3-pentadiene",82.1454,526.51,0.25,348.55,CCCCCCCCC(C)=C,00000000000000000000000000101000010000110000000000000000000000000000000000000000101000100000000000000000000000000000000101000010
"2-methyl-1,3-propanediol",90.1222,697.0,0.714,487.15,CCCCCCCCCCC(C)=C,00000000000000000000000000101000010000110000000000000000000000000000000000000000101000100000000000000000000000000000000101000010
"2-methyl-1,4-pentadiene",82.1454,493.39,0.251,323.15,CCc1c(C)ccc2ccccc12,00000001000000000000000000000000010000100000000000000000001000011000000000000100110000100000000000001000000000010010000000000000
"2-methyl-1,cis-3-pentadiene",82.1454,535.2,0.241,349.15,CCCCCCCCCCCCCCCC(C)=C,00000000000000000000000000101000010000110000000000000000000000000000000000000000101000100000000000000000000000000000000101000010
"2-methyl-1,trans-3-pentadiene",82.1454,535.2,0.241,349.15,CCCCCC(C)CO,01000000000000000000000000110000010000110000000000000000000000000000000000000000100000010000001000110000000000000000000100000000
2-methyl-1-butanethiol,104.21628,591.0,0.306,392.15,CCC(C)CS,01000000100000000000000000010000010000100000000000010000000000000100000000000000100000010000000000000100000000000000000000000000
"2-methyl-1-butanethiol, (+)",104.21628,583.5,0.284,392.25,CCCCCC(C)=C,00000000000000000000000000101000010000110000000000000000000000000000000000000000101000100000000000000000000000000000000101000010
2-methyl-1-butanol,88.14968,575.4,0.574,401.85,CCCCCCCCCCCCCCC(C)=C,00000000000000000000000000101000010000110000000000000000000000000000000000000000101000100000000000000000000000000000000101000010
"2-methyl-1-butanol, (±)",88.14968,562.34,0.577,400.65,CCCCC(C)CO,01000000000000000000000000110000010000110000000000000000000000000000000000000000100000010000001000110000000000000000000100000000
2-methyl-1-butene,70.1344,465.0,0.23,304.31,CCC(=C)C,00100000000000000000000000000000010000110000000000000000000000000000000000000000101000100000000000000000000000000000000001000010
2-methyl-1-butene-3-yne,66.10264,492.0,0.137,305.4,CCCCC(C)=C,00000000000000000000000000101000010000110000000000000000000000000000000000000000101000100000000000000000000000000000000101000010
2-methyl-1-decanal,170.29508,672.0,0.697,507.63,CC(C)c1c(C)ccc2ccccc12,01000000000000000000000000010000010000000000000000000000001000011000000000000100010000100010000000001000000000010000000000000000
2-methyl-1-decene,154.29568,637.68,0.491,463.85,CCCCCCCCCCCCCCCCCC(C)=C,00000000000000000000000000101000010000110000000000000000000000000000000000000000101000100000000000000000000000000000000101000010
2-methyl-1-dodecene,182.34944,673.88,0.571,504.45,CCCCCCCC(C)CO,01000000000000000000000000110000010000110000000000000000000000000000000000000000100000010000001000110000000000000000000100000000
2-methyl-1-ethylnaphthalene,170.25416,770.78,0.493,546.15,CCCCCCCC(C)=C,00000000000000000000000000101000010000110000000000000000000000000000000000000000101000100000000000000000000000000000000101000010
2-methyl-1-heptadecene,252.48384,745.42,0.72,588.15,CCCCCCCCCCCCCCCCC(C)=C,00000000000000000000000000101000010000110000000000000000000000000000000000000000101000100000000000000000000000000000000101000010
2-methyl-1-heptanol,130.23032,602.93,0.806,448.75,CCCCCCC(C)CO,01000000000000000000000000110000010000110000000000000000000000000000000000000000100000010000001000110000000000000000000100000000
"2-methyl-1-heptanol, (±)",130.23032,600.92,0.733,448.75,CCCCCCC(C)=C,00000000000000000000000000101000010000110000000000000000000000000000000000000000101000100000000000000000000000000000000101000010
2-methyl-1-heptene,112.21504,567.0,0.355,392.37,CCCCCCCCCCCCCC(C)CO,01000000000000000000000000110000010000110000000000000000000000000000000000000000100000010000001000110000000000000000000100000000
2-methyl-1-hexadecene,238.45696,732.59,0.699,573.15,CCCCCCCCCCCCCC(C)=C,00000000000000000000000000101000010000110000000000000000000000000000000000000000101000100000000000000000000000000000000101000010
2-methyl-1-hexanol,116.20344,595.0,0.773,437.15,CCCC(C)CO,01000000000000000000000000110000010000110000000000000000000000000000000000000000100000010000001000110000000000000000000000000000
"2-methyl-1-hexanol, (±)",116.20344,587.2,0.709,437.15,CCCC(C)=C,00000000000000000000000000101000010000110000000000000000000000000000000000000000101000100000000000000000000000000000000001000010
2-methyl-1-hexene,98.18816,538.0,0.309,364.99,CCCC(C)COC(C)=O,01000000001100000001000000110000010000110000000000000001000000000000000000000000100000010000000000010000000000000000001001000100
2-methyl-1-nonadecene,280.5376,768.75,0.746,615.15,CCCOCC(C)C,01000000000001000000000000110000010000100000000000000001000000000000000010000000100000000000000000000000000000000000001000000000
2-methyl-1-nonanol,158.28408,648.77,0.883,495.15,CCCc1c(C)ccc2ccccc12,00000000000000000000000000100000010000100000000000000000001000011000000000000100110000100001000000001000000000010010000000000000
2-methyl-1-nonene,140.2688,616.0,0.453,441.55,CCCCCCCCCCCCC(C)=C,00000000000000000000000000101000010000110000000000000000000000000000000000000000101000100000000000000000000000000000000101000010
2-methyl-1-octadecene,266.51072,757.46,0.736,602.15,CCCCCCCCCCCC(C)=C,00000000000000000000000000101000010000110000000000000000000000000000000000000000101000100000000000000000000000000000000101000010
2-methyl-1-octanol,144.2572,627.23,0.846,473.0,CCCCCCCCCC(C)CO,01000000000000000000000000110000010000110000000000000000000000000000000000000000100000010000001000110000000000000000000100000000
2-methyl-1-octene,126.24192,593.0,0.406,417.8,CCCCCCCCCC(C)=C,00000000000000000000000000101000010000110000000000000000000000000000000000000000101000100000000000000000000000000000000101000010
2-methyl-1-pentadecanol,242.44536,757.6,0.756,568.53,CC(O)C(C)(C)O,01000000100000000000100000010000010000010000000000000000000000000000000000000000000000000000000001010000000000000010100000000000
2-methyl-1-pentadecene,224.43008,718.92,0.673,557.15,C[CH]=[C]=[C](C)C,00000000000000000000000000000000011000010000100000000010000000000000000000001000000000000000000000000100000000000000000001000000
2-methyl-1-pentanol,102.17656,604.4,0.51,421.15,CCC(O)C(C)(C)O,01000000100000000000100000000000010000110000000000000000001000000000000000000000100000000000000000010000000000000010100000000000
2-methyl-1-pentene,84.16128,505.0,0.261,335.25,CC(N)CC(C)(C)N,01000000100000000011000000010000110100000000000000000001010000000000000000000000100000000000000000000000000000000010000000000000
2-methyl-1-pentyl acetate,144.21384,618.0,0.54,436.15,CCC(C)(C)S,00000000100000000000000000000100010000110000000000000000000000000000000000000000100000000000000000000100000000001010000000000000
"2-methyl-1-propene, tetramer",224.43008,720.46,0.702,517.15,CC=C(C)C,00000000000000000000000000000000010000010000000000000010000000000000000000001000000000000000000000000000010000000000000001000000
2-methyl-1-propoxypropane,116.20344,558.21,0.307,378.15,CCC(C)(CC)CO,00000000100001000000000000000000010000110000000000000000000000000000000000000000100000000000001000000000000000000011000000000000
2-methyl-1-propylnaphthalene,184.28104,812.35,0.537,585.41,CCCC(C)(CC)CO,00000000100001000000000000101000010000110000000000000000000000000000000000000000100000000000001000000000000000000011000000000000
2-methyl-1-tetradecene,210.4032,704.33,0.642,540.15,CCCCCC(C)(C)O,00000000100000000000000000101000010000110000000000000000000000000000000000000000100000010000000000000000000000000010100100000000
2-methyl-1-tridecene,196.37632,690.08,0.669,523.15,CCCCC=C(C)C,00000000000000000100000000100000010000110000000000000010000000000000000000000000100000000000000100000000010000000000000101000000
2-methyl-1-undecanol,186.33784,712.9,0.635,512.53,CCCCC(C)(C)O,00000000100000000000000000101000010000110000000000000000000000000000000000000000100000010000000000000000000000000010100100000000
2-methyl-1-undecene,168.32256,656.53,0.532,484.75,CCCC=C(C)C,00000000000000000100000000100000010000110000000000000010000000000000000000000000100000000000000100000000010000000000000001000000
"2-methyl-2,3-butanediol",104.14908,600.61,1.066,447.15,CCCCCCCC(C)(C)O,00000000100000000000000000101000010000110000000000000000000000000000000000000000100000010000000000000000000000000010100100000000
"2-methyl-2,3-pentadiene",82.1454,534.09,0.229,345.15,CCCCCCC(C)(C)O,00000000100000000000000000101000010000110000000000000000000000000000000000000000100000010000000000000000000000000010100100000000
"2-methyl-2,3-pentanediol",118.17596,670.5,1.105,505.76,CCCC(C)(C)S,00000000100000000000000000101100010000100000000000000000000000000000000000000000100000000000000000000100000000001010000000000000
"2-methyl-2,4-pentanediamine",116.20652,663.0,0.65,429.24,CCCC(C)(C)O,00000000100000000000000000101000010000110000000000000000000000000000000000000000100000010000000000000000000000000010100000000000
2-methyl-2-butanethiol,104.21628,566.0,0.243,372.28,CCC=C(C)C=O,00000000001000000000000000000000010000110000001000000010000000000000000000000010100000000000000100000000000010000000000001010000
2-methyl-2-butene,70.1344,470.0,0.287,311.71,CCC=C(C)C,00000000000000000000000000000000010000110000001000000010000000000000000000000000100000000000000100000000010000000000000001000000
2-methyl-2-ethyl-1-butanol,116.20344,593.16,0.695,430.15,CCCOC(C)(C)C,00000000100001000000000000100000010000100000000000000001000000001001000000000000100000000000000000000000000000000010000000000000
2-methyl-2-ethyl-1-pentanol,130.23032,611.53,0.738,450.25,CCCCC(CC)(CC)C(C)C,01000000000000000000000000111000010000110000000000000000000000000000000000000000100000000000000000000001000000010010000100000000
2-methyl-2-heptanol,130.23032,583.83,0.738,429.85,CCCC(CC)(CC)C(C)C,01000000000000000000000000111000010000110000000000000000000000000000000000000000100000000000000000000001000000010010000000000000
2-methyl-2-heptene,112.21504,575.22,0.351,395.75,CCCC(CC)C(CC)C(C)C,01000000100000000000000000110000010000100000000000000000000000001000000000000000101000000000000000010000000001000000000000000000
2-methyl-2-hexanol,116.20344,573.58,0.695,415.95,CCC(CC)C(CC)C(C)C,01000000100000000000000000010000010000100000000000000000000000001000000000000000101000000000000000000000000001000000000000000000
2-methyl-2-hexene,98.18816,546.77,0.307,368.56,CCC(CC)CC(CC)C(C)C,01000000100010000000000000010000010000101000000000000000000000000000000000000000101000000000000000000000000001000000000000000000
2-methyl-2-nonanol,158.28408,643.93,0.819,487.0,CC(C=C)C(O)=O,01000100001000000000000000010000010000010000000000001010100000000000000000000000000000100000000000000000000001000000000000001100
2-methyl-2-octanol,144.2572,604.24,0.78,451.15,CCC(CC)C(C)CO,01000000100000000000000000010000010000110000000000000000000000000000000000000000101000000000001000100000000000000000000001000000
2-methyl-2-pentanethiol,118.24316,615.0,0.353,407.26,CCC(CC)C(C)=C,01000000100000000000000000000000010000110000000000000000000000000000000000000001100001100000000000000000000000000000000001000010
2-methyl-2-pentanol,102.17656,559.5,0.579,394.56,CCCC(CC)C(C)(C)O,01000000100000000000100000100000110000110000000000000000000000000000000000000000100000000000000000010000000000000010100000000000
2-methyl-2-pentenal,98.1448,605.0,0.349,409.65,CCC(CC)C(C)(C)O,01000000100000000000100000000000110000110000000000000000000000000000000000000000100000000000000000000000000000000010100000000000
2-methyl-2-pentene,84.16128,514.0,0.245,340.45,CCC(CC)=C(C)C,00100100000000000000000000000000010000110000000000000000000000000000000000000000100000000000000000000000000000000000000011000000
2-methyl-2-propoxypropane,116.20344,558.21,0.307,373.15,CCCCC(O)(CC)C(C)C,01000000000000000000000000111001010000110000000000000000000000000000000000000000100000000000000000000001000000000010100100000000
"2-methyl-3,3-diethylheptane",170.33844,652.14,0.461,476.15,CCCC(O)(CC)C(C)C,01000000000000000000000000111001010000110000000000000000000000000000000000000000100000000000000000000001000000000010100000000000
"2-methyl-3,3-diethylhexane",156.31156,638.91,0.419,459.15,CCCC(CC)(C(C)C)C(C)C,01000000000000000000000000111000010000110000000000000000000000000000000000000000100000000000000000000001000000000010000000000000
"2-methyl-3,4-diethylheptane",170.33844,637.53,0.491,468.15,CCC(O)(CC)C(C)C,01000000000000000000000000010001010000110000000000000000000000000000000000000000100000000000000000000001000000000010100000000000
"2-methyl-3,4-diethylhexane",156.31156,625.29,0.449,452.15,CCc1cc2ccccc2cc1C,00000001000000000000000000000000010000100000000000000000001000011000010000000000110000100000000000001000000100010000000000000000
"2-methyl-3,5-diethylheptane",170.33844,637.53,0.491,468.15,CCCCCCC(CC)C(C)C,01000000100000000000000000110000010000100000000000000000000000000000000000000000101000000000000000010000000001000000000100000000
2-methyl-3-butenoic acid,100.11732,676.0,0.395,450.0,CCCCCC(CC)C(C)C,01000000100000000000000000110000010000100000000000000000000000000000000000000000101000000000000000010000000001000000000100000000
2-methyl-3-ethyl-1-pentanol,130.23032,605.16,0.773,448.0,CCc1cccc(O)c1C,00000001000000000000000000000000010000110000000000000000001000001010010100000000110000100000000000001000000000000000000000001000
2-methyl-3-ethyl-1-pentene,112.21504,559.31,0.332,383.15,CCc1ccsc1C,00000001000000100000000000000001010100100000000000000000011000000000010000000000110000100000000000001000000000000000000000000000
2-methyl-3-ethyl-2-hexanol,144.2572,607.43,0.748,451.15,CCCCC(O)C(C)C,01000000000000000000000000110000010000110000000000000000000000000000000000000000100000000000000000010000000001000000000110000000
2-methyl-3-ethyl-2-pentanol,130.23032,588.68,0.706,430.95,CCC(CC)C(C)(C)O,01000000100000000000100000000000110000110000000000000000000000000000000000000000100000000000000000000000000000000010100000000000
2-methyl-3-ethyl-2-pentene,112.21504,570.68,0.326,390.15,CCCCC(=O)C(C)C,01000000001000000000000000111000010000110000000000000001000000000000010000000000100000000000000000000000000000000000000100000100
2-methyl-3-ethyl-3-heptanol,158.28408,619.35,0.788,466.15,CCCC=CC(C)C,01000000000000000100000000110000011000100000000000000010000000000000000000001000100000001000000000000000000000000000000000000000
2-methyl-3-ethyl-3-hexanol,144.2572,615.65,0.748,457.25,CCCC(O)C(C)C,01000000000000000000000000110000010000110000000000000000000000000000000000000000100000000000000000010000000001000000000010000000
2-methyl-3-ethyl-3-pentanol,130.23032,591.68,0.706,433.15,CCCC(=O)C(C)C,01000000001000000000000000111000010000110000000000000001000000000000010000000000100000000000000000000000000000000000000000000100
2-methyl-3-ethylnaphthalene,170.25416,776.44,0.488,550.16,CCC#CC(C)C,01000000000000000000000100010000011100100000000000000000000010000000000000000000100000000000000000000000000000000000000000000000
2-methyl-3-ethylnonane,170.33844,642.08,0.519,474.15,CCCC(O)(C(C)C)C(C)C,01000001000000000000000000111000010000110000000000000000000000000000000000000000100000000000000000000001000000000010100000000000
2-methyl-3-ethyloctane,156.31156,625.61,0.478,455.15,CCC(O)(C(C)C)C(C)C,01000001000000000000000000010000010000110000000000000000000000000000000000000000100000000000000000000001000000000010100000000000
2-methyl-3-ethylphenol,136.19368,726.44,0.495,500.15,CCCCC(C(C)C)C(C)C,01000000000000000000000000110000010000100000000000000000000000001000000000000000100000000000000000010000000001000000000100000000
2-methyl-3-ethylthiophene,126.2224,645.99,0.342,430.15,CCCCCC(C(C)C)C(C)C,01000000000000000000000000110000010000100000000000000000000000001000000000000000100000000000000000010000000001000000000100000000
2-methyl-3-heptanol,130.23032,595.37,0.773,440.75,CC(C)c1cccc(O)c1C,01000000000000000000000000010000010000010000000000000000001000001010000100000000010000100000000000001000000001000000000000001000
"2-methyl-3-heptanol, (±)",130.23032,600.92,0.733,440.65,CCCCCCC(O)C(C)C,01000000000000000000000000110000010000110000000000000000000000000000000000000000100000000000000000010000000001000000000110000000
2-methyl-3-heptanone,128.21444,624.0,0.528,431.15,CCCCCCC(=O)C(C)C,01000000001000000000000000111000010000110000000000000001000000000000010000000000100000000000000000000000000000000000000100000100
2-methyl-3-heptene,112.21504,564.74,0.328,385.15,CCCCCC=CC(C)C,01000000000000000100000000110000011000100000000000000010000000000000000000001000100000001000000000000000000000000000000100000000
2-methyl-3-hexanol,116.20344,573.21,0.731,418.15,CCCCCC(O)C(C)C,01000000000000000000000000110000010000110000000000000000000000000000000000000000100000000000000000010000000001000000000110000000