name,molweight,critical temperature (K),acentric factor,boiling point (K),SMILES,ECFP_Bits
"2,2-dimethylpentane",100.20404,520.5,0.287,352.34,CC1(C)CS1,00000000000000000000000000000010010110000000000000000000000000000000000000000000000000000000010000000000000100000000000010100000
"2,2-dimethylpropanal",86.1338,525.74,0.325,347.15,CCCCCCCCCCCC(C)(C)C,00000000100000000000000000101000010000100000000000000000000000000000000000000000100000000000000000000100000000000010000100000000
"2,2-dimethylpropanenitrile",83.1332,565.78,0.335,378.75,CCCCCCCCCC(C)(C)C,00000000100000000000000000101000010000100000000000000000000000000000000000000000100000000000000000000100000000000010000100000000
"2,2-dimethylpropanoic acid",102.1332,632.0,0.513,436.95,CC(C)(c1ccccc1)c2ccccc2,00000000110000000000000000000000010000000000000000000000000000001000000000000000010000100000000000001000000000000010000000000000
"2,2-dimethylpropyl butanoate",158.24072,607.0,0.822,460.31,CCCC(=O)OCC(C)(C)C,00000000101000000001000000101000010000110000000000000001000000000000000000000000100000000000000000000101001000000010000000000100
"2,2-dimethylpropyl formate",116.16008,575.0,0.348,390.97,CC(C)C(C)(C)C(C)(C)C(C)C,01000000100000000000000000010000010000000000000000000100000000000000000000000000000000000000000000000001000000000010000000000000
"2,2-dimethylpropyl propanoate",144.21384,593.0,0.677,437.43,CCCC(C)(C)C(C)(C)C(C)C,01000000100000000000000000111000010000100000000000000100000000010000000000000000100000000000000000000001000000000010000000000000
"2,2-dimethylpropylamine",87.16496,517.1,0.384,350.15,CCC(C)(C)C(C)(C)C(C)C,01000000100000000000000000010000010000110000000000000100000000010000000000000000100000000000000000000001000000000010000000000000
"2,2-dimethyltetradecane",226.44596,708.68,0.632,547.15,CCC(C)C(C)C(C)(C)C(C)C,01000000100101000000000000010000010000100000000000000000000000000000000000000000100000000000000000000001000000000010000001000000
"2,2-dimethyltetrahydrofuran",100.16068,563.41,0.269,365.35,CC(C)C(C)C(C)(C)C(C)C,01000000100101000000000000010000010000000000000000000000000000000000000000000000000000000000000000000001000001000010000000000000
"2,2-dimethylthiacyclohexane",130.25416,657.02,0.249,427.18,CC(C)CC(C)C(C)(C)C(C)C,01000100100100000000000000010000010000001000000000000001000000000000000000000000100000000000000000000001000000000010000000000000
"2,2-dimethylthiacyclopentane",116.22728,623.18,0.235,400.03,CC(C)C(C)(C)C(C)(C)O,01000000100000000000000000010000010000010000000000000100000010000000000000000000000000000000000000000001000000000010100000000000
"2,2-dimethylthiacyclopropane",88.17352,574.84,0.206,359.15,CCC(C)(CC)C(C)(C)C(C)C,01000000100000000000000000010000010000110000000000000100000000000000000000000000100000000000001000000001000000000010000000000000
"2,2-dimethyltridecane",212.41908,694.17,0.601,530.15,CCCC(C)C(C)(C)C(C)C,01000100100100000000000000110000010000100000000000000000000000000000000000000000100000000000000000010001000000000010000000000000
"2,2-dimethylundecane",184.36532,663.4,0.529,494.15,CCC(C)C(C)(C)C(C)C,01000100100100000000000000010000010000100000000000000000000000000000000000000000100000000000000000000001000000000010000000000000
"2,2-diphenylpropane",196.29204,788.27,0.43,554.34,CCCCC(C)C(C)(C)C(C)C,01000100100100000000000000110000010000100000000000000000000000000000000000000000100000000000000000010001000000000010000100000000
"2,3'-trimethylbiphenyl",182.26516,781.7,0.495,547.15,CC(C)C(C)(C)C(C)C,01000000100100000000000000010000010000000000000000000000000000000000000000000000000000000000000000000001000000000010000000000000
"2,3,3,4,4,5-hexamethylhexane",170.33844,672.82,0.347,479.15,CCC(C)(C)CC(C)(C)C(C)C,01000000100000000000000000010000010000110000100000000000000000000000000000010000100000000000000000000001000000000010001000000000
"2,3,3,4,4-pentamethylheptane",170.33844,664.25,0.375,476.15,CC(C)C(C)CC(C)(C)C(C)C,01000000100000000000000000010000010000000000100000000000010000000000000000000000100000000000000000000001000001000010000001000000
"2,3,3,4,4-pentamethylhexane",156.31156,653.15,0.333,460.15,CCC(C(C)C)C(C)(C)C(C)C,01000000100100000000000000010000010000100000000000000000000000000000000000000000100000000000000000000001000001000010000000000000
"2,3,3,4,5-pentamethylheptane",170.33844,655.95,0.404,473.15,CCC(C)CC(C)(C)C(C)C,01000000100000000000000000010000010000100000100000000000010000000000000000000000100000010000000000000001000000000010000000000000
"2,3,3,4,5-pentamethylhexane",156.31156,640.29,0.362,454.15,CC(C)CC(C)(C)C(C)C,01000000100000000000000000010000010000000000100000000001010000000000000000000000100000000000000000000001000000000010000000000000
"2,3,3,4,6-pentamethylheptane",170.33844,649.01,0.404,468.15,CCCC(C)CC(C)(C)C(C)C,01000000100000000000000000110000010000100000100000000000010000000000000000000000100000010000000000010001000000000010000000000000
"2,3,3,4-tetramethyl-2-pentanol",144.2572,620.23,0.651,453.0,CC(C)CCC(C)(C)C(C)C,01000000100000000000000000011000010000000000100000000001000000000000000000000000100000000000000000010001000000000010000000000000
"2,3,3,4-tetramethyl-4-ethylhexane",170.33844,671.22,0.375,481.15,CCC(C)CCC(C)(C)C(C)C,01000000100000000000000000011000010000100000100000000000000000000000000000000000100000010000000000010001000000000010000000000000
"2,3,3,4-tetramethylheptane",156.31156,637.45,0.391,455.15,CC(C)CCCC(C)(C)C(C)C,01000000100000000000000000011000010000000000100000000001000000000000000000000000100000000000000000010001000000000010000100000000
"2,3,3,4-tetramethylhexane",142.28468,633.1,0.334,437.75,CC(Br)C(C)(Br)Br,01000000100000000000000000010000010000000000000000000000000000100000000000000000010010011000000000000000000000000010000000000000
"2,3,3,4-tetramethyloctane",170.33844,653.29,0.432,474.15,CC(Cl)C(C)(Cl)Cl,01000000100000000011000000011000011100000000000000000000000000000000000000000000000000000000000000000000000000000010000000000000
"2,3,3,4-tetramethylpentane",128.2578,607.5,0.314,414.7,CC(F)C(C)(F)F,01000000100000000000000000110000010000000000010000000000000000000000000000000000000000000000000000100000000000000010000000000000
"2,3,3,5,5-pentamethylheptane",170.33844,660.06,0.375,473.15,CC(CO)C(C)(C)C,01000100100000000000000000010000010000010000000000000000000000000000000000000000100000000000001000100000000001000010000000000000
"2,3,3,5,6-pentamethylheptane",170.33844,644.85,0.404,465.15,CC(=C)C(C)(C)C,00100000100000100000000000000000010000010000000000000000000000000000000000000000000000100000000000000000000000000010000001000010
"2,3,3,5-tetramethyl-4-ethylhexane",170.33844,651.79,0.404,470.15,CCC(C)(C)C(C)CO,01000100100000000000000000010000010000110000100000000000000000000000000000000000100000000000001000100000000000000010000000000000
"2,3,3,5-tetramethylheptane",156.31156,629.04,0.391,449.15,CCC(C)(C)C(C)=C,00100000100000000000000000000000010000110000000000000000000000000000000000000000100000110000000000000000000000000010000001000010
"2,3,3,5-tetramethylhexane",142.28468,610.1,0.351,426.26,CC(C)(C)C(C)(C)O,00000000100000000000000000000000010000010000000000000000000010000000000000000000000000000000000001000000000000000010100000000000
"2,3,3,5-tetramethyloctane",170.33844,643.65,0.432,467.15,CCC(C)(C)C(C)(C)O,00000000100000000000000000000000010000110000000000000000000010010000000000000000100000000000000000000000000000000010100000000000
"2,3,3,6-tetramethylheptane",156.31156,627.64,0.391,448.15,CCCC(CC)C(C)(C)C(C)C,01000000100100000000000000110000110000100000000000000000000000000000000000000000100000000000000000010001000000000010000000000000
"2,3,3,6-tetramethyloctane",170.33844,646.41,0.432,469.15,CCC(CC)C(C)(C)C(C)C,01000000100100000000000000010000110000100000000000000000000000000000000000000000100000000000000000000001000000000010000000000000
"2,3,3,7-tetramethyloctane",170.33844,646.41,0.432,469.15,CCC(CC)CC(C)(C)C(C)C,01000000100010000000000000010000010000100000100000000000010000000000000000000000100000000000000000000001000000000010000000000000
"2,3,3-tribromobutane",294.81158,721.95,0.462,479.15,CCCCC(C)(C)C(C)C,01000000100000000000000000111000010000100000100000000000000000000000000000000000100000000000000000000001000000000010000100000000
"2,3,3-trichlorobutane",161.45768,633.36,0.271,416.15,CCCC(C)(C)C(C)C,01000000100000000000000000111000010000100000100000000000000000000000000000000000100000000000000000000001000000000010000000000000
"2,3,3-trifluorobutane",112.0947896,432.9,0.269,285.06,CCCCCCC(C)(C)C(C)C,01000000100000000000000000111000010000100000100000000000000000000000000000000000100000000000000000000001000000000010000100000000
"2,3,3-trimethyl-1-butanol",116.20344,601.01,0.662,433.15,CCCCCC(C)(C)C(C)C,01000000100000000000000000111000010000100000100000000000000000000000000000000000100000000000000000000001000000000010000100000000
"2,3,3-trimethyl-1-butene",98.18816,531.0,0.239,351.04,CCC(C)(C)C(C)C,01000000100000000000000000010000010000110000100000000000000000000000000000000000100000000000000000000001000000000010000000000000
"2,3,3-trimethyl-1-pentanol",130.23032,613.33,0.706,449.0,CCC(C)C(C)(C)C(C)C(C)C,01000100100101000000000000010000010000100000000000000000000000000000000000000000100000000000000000000000000001000010000000000000
"2,3,3-trimethyl-1-pentene",112.21504,565.71,0.272,381.46,CC(C)CC(C)(C)C(C)C(C)C,01000000100001000000000000010000010000000000100000000001010000000000000000000000100000000000000000000000000001000010000000000000
"2,3,3-trimethyl-2-butanol",116.20344,568.02,0.595,404.15,CCC(C)(C)C(C)C(C)(C)O,01000000100001000000100000010000010000110000100000000000000000000000000000000000100000000000000000000000000000000010100000000000
"2,3,3-trimethyl-2-pentanol",130.23032,598.76,0.639,433.15,CC(C(C)(C)C)C(C)(C)O,01000000100001000000100000010000010000010000000000000000000000000000000000000000000000000000000000000000000001000010100000000000
"2,3,3-trimethyl-4-ethylheptane",170.33844,650.54,0.432,472.15,CCC(C)(C)C(C)(CC)C(C)C,01000000100000000000000000010000010000110000000000000000000000010000000000000000100000000000000010000001000000000010000000000000
"2,3,3-trimethyl-4-ethylhexane",156.31156,638.85,0.391,456.15,CCC(C)(C)C(C)(O)C(C)C,01000000100000000100000000010000010000110000000000000000000000010000000000000000100000000000000000000001000000000010100000000000
"2,3,3-trimethyl-5-ethylheptane",170.33844,643.65,0.432,467.15,CCCC(C)(C)C(C)C(C)C,01000000100001000000000000111000010000100000100000000000000000000000000000000000100000000000000000000000000001000010000000000000
"2,3,3-trimethylheptane",142.28468,617.5,0.371,433.36,CCC(C)(C)C(C)C(C)C,01000000100001000000000000010000010000110000100000000000000000000000000000000000100000000000000000000000000001000010000000000000
"2,3,3-trimethylhexane",128.2578,596.0,0.333,410.84,CCCCC(C)(C)C(C)C(C)C,01000000100001000000000000111000010000100000100000000000000000000000000000000000100000000000000000000000000001000010000100000000
"2,3,3-trimethylnonane",170.33844,650.77,0.461,475.15,CCC(C)(C)C(C)C(C)C(C)C,01000000100001000000000000010000010000110000100000000000000000000000000000000000100000000000000000000100000001000010000000000000
"2,3,3-trimethyloctane",156.31156,633.34,0.419,455.15,CC(C)C(C)C(C)C(C)C(C)C,01000000000000000000000000010000010000000000000000000000000000000000000000000000000000000000000000000100000001000000000000000000
"2,3,3-trimethylpentane",114.23092,573.5,0.29,387.92,CCC(C)(C(C)C)C(C)C(C)C,01000000100001000000000000010000010000110000000000000000001000000000000000000000100000000000000000000001000001000010000000000000
"2,3,4,4,5-pentamethylheptane",170.33844,655.95,0.404,473.15,Cc1cc(N)c(C)c(C)c1C,00000000000000100001000000000000010000000000000001000000001000000000000000000000010000000000000000001000000100010000000000001000
"2,3,4,4,6-pentamethylheptane",170.33844,642.08,0.404,463.15,CCC(C)C(C)C(C)C(C)C,01000000100000000000000000010000010000100000000000000000000000000000000000000000100000000000000000000100000001000000000001000000
"2,3,4,4-tetramethyl-2-hexanol",158.28408,624.93,0.693,463.15,CC(C)C(C)C(C)C(C)C,01000000000000000000000000010000010000000000000000000000000000000000000000000000000000000000000000000100000001000000000000000000
"2,3,4,4-tetramethyl-2-pentanol",144.2572,620.23,0.651,453.0,CCCC(C)C(C)C(C)C(C)C,01000000000000000000000000110000010000100000000000000000000000000000000000000000100000000000000000010100000001000000000001000000
"2,3,4,4-tetramethyl-3-ethylhexane",170.33844,671.22,0.375,481.15,Cc1cc(O)c(C)c(C)c1C,00000000000000000000000000000000010000010000000000000000001000000010000100000000010000000000000000001000000100010000000000001000
"2,3,4,4-tetramethyl-3-hexanol",158.28408,639.77,0.693,474.15,Cc1cc(C)c(N)c(C)c1C,00000000000000000001000000000000010000000000000001000000001000000000000000000000010000000000000000001000000100010000000000001000
"2,3,4,4-tetramethylheptane",156.31156,631.84,0.391,451.15,CC(C)CC(C)C(C)C(C)C,01000000000000000000000000010000010000001000000000000001000000000000000000000000100000000000000000000100000001000000000001000000
"2,3,4,4-tetramethylhexane",142.28468,626.6,0.339,434.76,CCC(C)CC(C)C(C)C(C)C,01000000100000000000000000010000010000101000000000000000000000000000000000000000100000010000000000000100000001000000000001000000
"2,3,4,4-tetramethyloctane",170.33844,646.41,0.432,469.15,Cc1cc(C)c(O)c(C)c1C,00000000000000000000000000000000010000010000000000000000001000000010000000100000010000000000000000001000000100010000000000001000
"2,3,4,5,5-pentamethylheptane",170.33844,651.79,0.404,470.15,CC(C)CCC(C)C(C)C(C)C,01000000000000000000000000010000010000000000000000000001000000000000000000000000100000000000000000010100000001000000000001000000
"2,3,4,5,6-pentamethylheptane",170.33844,645.08,0.434,468.15,CC(C)C(C)C(C)CO,01000000000000000000000000010000010000010000000000000000000000000000000000000000100000000000001000100100000001000000000001000000
"2,3,4,5-tetramethyl-3-ethylhexane",170.33844,657.33,0.404,474.15,CC(C)C(C)C(C)=C,01000000000000000000000000010000010000011000000000000000000000000000000000000001000000100000000000000000000001000000000001000010
"2,3,4,5-tetramethylaniline",149.23584,690.0,0.69,532.65,CCC(C)C(C)C(C)(C)O,01000000100001000000100000010000010000110000000000000000000000000000000000000000100000000000000000000000000000000010100001000000
"2,3,4,5-tetramethylheptane",156.31156,629.22,0.421,452.15,CC(C)C(C)C(C)(C)O,01000000100001000000100000010000010000010000000000000000000000000000000000000000000000000000000000000000000001000010100000000000
"2,3,4,5-tetramethylhexane",142.28468,613.2,0.365,429.36,CC(C)C(C)=C(C)C,01000000000000000000000000010000010000010000000000000000000000000000010000000000000000000000000000000000000000000000000011000010
"2,3,4,5-tetramethyloctane",170.33844,643.97,0.462,470.15,CCCC(C)C(C)(CC)C(C)C,01000100100000000000000000110000010000110000000000000000001000000000000000000000100000000000000000010001000000000010000000000000
"2,3,4,5-tetramethylphenol",150.22056,757.92,0.538,533.15,CCC(C)C(C)(CC)C(C)C,01000100100000000000000000010000010000110000000000000000001000000000000000000000100000000000000000000001000000000010000000000000
"2,3,4,6-tetramethylaniline",149.23584,690.0,0.69,528.15,CCC(C)C(C)(O)C(C)C,01000100100000000000000000010000010000110000000000000000000000000000000000000000100000000000000000000001000010000010100000000000
"2,3,4,6-tetramethylheptane",156.31156,622.26,0.421,447.15,CCC(C)C(C)(C(C)C)C(C)C,01000100100000000000000000010000010000100000000000000000000000000001000000000000100000000000000000000001000000000010000000000000
"2,3,4,6-tetramethyloctane",170.33844,641.23,0.462,468.15,CC(C)C(C)(C(C)C)C(C)C,01000000100000000000000000010000010000000000000000000000000000000001000000000000000000000000000000000001000000000010000000000000
"2,3,4,6-tetramethylphenol",150.22056,743.7,0.538,523.15,CC(C)C(C)(O)C(C)C,01000000100000000000000000010000010000010000000000000000000000000000000000000000000000000000000000000001000010000010100000000000
"2,3,4,7-tetramethyloctane",170.33844,639.86,0.462,467.15,CCCC(C)(CC)C(C)C(C)C,01000000100001000000000000111000010000110000000000000000000000000010000000000000100000000000000000000000000001000010000000000000
"2,3,4-trimethyl-1-pentanol",130.23032,619.59,0.741,456.15,CCC(C)(CC)C(C)C(C)C,01000000100001000000000000010000010000110000000000000000000000000010000000000000100000000000000000000000000001000010000000000000
"2,3,4-trimethyl-1-pentene",112.21504,557.76,0.308,381.15,CCC(CC)C(C)C(C)C(C)C,01000000100000000000000000010000010000100000000000000000000000000000000000000000101000000000000000000100000001000000000000000000
"2,3,4-trimethyl-2-hexanol",144.2572,630.85,0.716,466.0,CCCC(C)C(C)C(C)C,01000000000000000000000000110000010000100000000000000000000000000000000000000000100000000000000000010100000001000000000001000000
"2,3,4-trimethyl-2-pentanol",130.23032,592.43,0.674,431.15,CCC(C)C(C)C(C)C,01000000100000000000000000010000010000100000000000000000000000000000000000000000100000000000000000000100000001000000000001000000
"2,3,4-trimethyl-2-pentene",112.21504,574.12,0.297,389.41,CCCCCC(C)C(C)C(C)C,01000000000000000000000000110000010000100000000000000000000000000000000000000000100000000000000000010100000001000000000101000000
"2,3,4-trimethyl-3-ethylheptane",170.33844,656.05,0.432,476.15,CCCCC(C)C(C)C(C)C,01000000000000000000000000110000010000100000000000000000000000000000000000000000100000000000000000010100000001000000000101000000
"2,3,4-trimethyl-3-ethylhexane",156.31156,644.45,0.391,460.15,CC(C)C(C)C(C)C,01000000000000000000000000010000010000000000000000000000000000000000000000000000000000000000000000000100000001000000000000000000
"2,3,4-trimethyl-3-hexanol",144.2572,594.3,0.716,439.0,Cc1ccc(O)c(C)c1C,00000000000000000000000000000000010000010000000000000000001000000010000100000000010000100000000000001000000000010000000000001000
"2,3,4-trimethyl-3-isopropylhexane",170.33844,661.49,0.404,477.15,Cc1ccnc(C)c1C,00000000000000000000000000000000010000000000100000000000001000000000000000100000010000100000100000001000000000010000000000101000
"2,3,4-trimethyl-3-isopropylpentane",156.31156,647.34,0.362,459.15,Cc1scc(C)c1C,00000000000000000000000000000001010100001000000000000000011000000000000000000000010000000000000000001000000000010000000000001000
"2,3,4-trimethyl-3-pentanol",130.23032,591.06,0.674,430.15,CC(C)C(C)(O)CC(C)(C)C,01000000100000000000000000010000010000010000000000000000000000000000000000000000100000000000000000000101000000000010101000000000
"2,3,4-trimethyl-4-ethylheptane",170.33844,649.16,0.432,471.15,CCC(C)(C)CC(C)C(C)C,01000000100000000000000000010000010000110000000000000000010000000000000000010000100000000000000000000000000001000010000001000000
"2,3,4-trimethyl-4-ethylhexane",156.31156,634.64,0.391,453.15,CCCC(C)(C)CC(C)C(C)C,01000000100000000000000000111000010000100000000000000000010000000000000000010000100000000000000000000000000001000010000001000000
"2,3,4-trimethyl-5-ethylheptane",170.33844,643.97,0.462,470.15,CC(C)C(C)CC(C)C(C)C,01000000000000000000000000010000010000001000000000000000000000000000000000000000100000000000000000000000000001000000000001000000
"2,3,4-trimethylheptane",142.28468,613.7,0.391,433.06,CCC(C)C(C)CC(C)C(C)C,01000000100000000000000000010000010000101000000000000000000000000000000000000000100000000000000000000000000001000000000001000000
"2,3,4-trimethylhexane",128.2578,594.5,0.353,412.2,Cc1cc(C)c(C)c(O)c1C,00000000000000000000000000000000010000010000000000000000001000000010000000100000010000000000000000001000000100010000000000001000
"2,3,4-trimethylnonane",170.33844,644.34,0.491,473.15,CC(C)CC(C)CC(C)C(C)C,01000000000000000000000000010000010000001000000000000001000000000000000000000000100000010000000000000000000001000000000001000000
"2,3,4-trimethyloctane",156.31156,626.67,0.449,453.15,CCC(C)CC(C)(CC)C(C)C,01000000100000000000000000010000010000110000000000000000010000000010000000000000100000010000000000000001000000000010000000000000
"2,3,4-trimethylpentane",114.23092,566.4,0.315,386.62,CCC(C)(CC(C)C)C(C)C,01000000100000000000000000010000010000110000000000000001010000000010000000000000100000000000000000000001000000000010000000000000