name,molweight,critical temperature (K),acentric factor,boiling point (K),SMILES,ECFP_Bits
acetone,58.08004,508.2,0.306,329.44,OC(=O)CCCCC(O)=O,00000100001000000000000000001000000000010000000000000000000000000000000001000000100000000000000000000000000000000000000100000100
acetone cyanohydrin,85.10572,620.0,0.767,444.0,N#CCCCCC#N,00000000000000000000001000000100001000000000000000000000000000000100000000000000100000000000000000000000100000000000000100000000
acetonitrile,41.05256,545.5,0.338,354.75,[CH2]=[C]=[CH2],00000000000000000000000000000000001000000000000000000000000000000000000000000000000000100000100001000000000000000000000000000000
acetophenone,120.15092,709.6,0.383,475.26,CC(=O)OCC=C,00000000001100000001000000000000010100010000100000000011000000000000000000000000100000100000000000000000000001000000000001000100
acetyl chloride,78.49792,508.0,0.334,323.9,OCC=C,00000000000000000000000000000000000000010000100000000010000000010000000000000000100000100000001000000000000001000000000000000000
acetylacetone,100.11732,646.65,0.211,413.55,CCCC(=O)OCC=C,00000000001000000001000000101000010100110000100000000011000000000000000000000000100000100000000000000000001001000000000000000100
acetylene,26.03788,308.3,0.191,189.35,CCOCC=C,00000000000000000000000000000000010100100000100000000011000000000000000010000000100000100000000000000000000001000000000000000000
acridine,179.2212,905.0,0.438,619.15,C=CCOC=O,00000000001000000000000000000001000100000000100000000011000000000000000000000000100000100000000000000010000011000000000000000000
acrolein,56.06416,506.0,0.32,325.84,C=CCOCC1CO1,00010000000000001000000000000010001100000000100000000011000000000000000010000000100000100000000000000000000001011000000000010000
acrylamide,71.07884,776.0,0.486,514.0,CC(=C)C(=O)OCC=C,00000000001000000001000000000000010100010000100000000011100000000000000001000000100000100000000000000000000001000000000001000110
acrylic acid,72.06356,615.0,0.518,414.15,CCC(=O)OCC=C,00100000001000000001000000000000010100110000100000000011000000000000000000000000100000100000000000000000001001000000000000000100
acrylonitrile,53.06356,535.0,0.35,350.5,CC(C)(C)OOCC=C,00000000100000000000000000000000010100000000100000000011000000000001000100000000100000100000000000000000000001000110000000000000
adipic acid,146.143,809.0,1.051,611.0,NCC=C,00000000000000000001000000000000000000000000101000000010000000000000000000000000100001100000000000000000000001000000000000000000
adiponitrile,108.143,781.0,0.659,568.15,ClCC1CO1,00010000000000001001000000000010001000000000000000000000000000000000000000000000100001000000000000000000000000010000000000010001
allene,40.06476,394.0,0.104,238.65,CCC(O)c1ccccc1,01000000100000000000000000000000010000110000000000000000000000001000000000000000111001100000000000011000000000000000000000000000
allyl acetate,100.11732,559.0,0.388,377.15,CC(C=O)c1ccccc1,01000000001000000000000000010000010000000000000000000010000000001000000000000000010001100000000001001000000010000000000000001000
allyl alcohol,58.08004,545.1,0.57,370.23,C=CCO,00000000000000000000000000000000000000010000100000000010000000010000000000000000100000100000001000000000000001000000000000000000
allyl butanoate,128.17108,592.33,0.432,415.15,CC(=C)c1ccccc1,00000000000000000000000000000000010000010000000000000000000000001000000000000000010000101000000000001000010000000000000001000010
allyl ethyl ether,86.1338,505.58,0.323,340.75,CC(C)C1CC=C(C)C=C1,01000000000000010000000000010010010100000000000000000000001100000000000000000000010000100000000000001001000000000000010000010100
allyl formate,86.09044,530.0,0.343,356.75,CC1=CCC2CC1C2(C)C,00000000000010001000000000000010010011000001000000000000001000000000000000000000010000100000000000001000000000000000010000110000
allyl glycidyl ether,114.1442,629.0,0.409,427.15,C=CCOCC1CO1,00010000000000001000000000000010001100000000100000000011000000000000000010000000100000100000000000000000000001011000000000010000
allyl methacrylate,126.1552,600.0,0.388,412.65,CC(C)C1=CC=C(C)CC1,01000000000000000000000000010010010000000000000001000000001100000000000000100000010000100000000001001000000000000000000000000000
allyl propanoate,114.1442,569.0,0.434,396.15,[BH4-].[BH4-].[BH4-].[Al+3],00000000000000000000000100000000000000000000000000000000000000000000000000000000000000000000000100000000000000000000000000000000
allyl-tert-butylperoxide,130.18696,563.0,0.402,389.94,[Al+3].[Br-].[Br-].[Br-],00000000000010000000000000000000000000000000000000000000000000000000000000000000000000000000000100000000000000000000000000000000
allylamine,57.09532,505.0,0.327,326.45,[Al+3].[Cl-].[Cl-].[Cl-],00000000000000000000000000000000000000000000000000000000000000000000000000100000000000000000000100000000000000000000000000000000
alpha-epichlorohydrin,92.5248,615.0,0.252,391.65,[Al+3].[I-].[I-].[I-],00000000000000000001000000000000000000000000000000000000000000000000000000000000000000000000000100000000000000000000000000000000
alpha-ethylbenzenemethanol,136.19368,677.0,0.746,492.15,NCC#N,00000000000000000001001000100000001000000000000000000000000000000100000000000000100001000000000000000000100000000000000000000000
alpha-methylbenzeneacetaldehyde,134.1778,682.0,0.459,472.0,N,00000000000000000000000000000000001000000000000000000000000000000000000000000000000000000000000000000000000000000000000000000000
"alpha-methylbenzenemethanethiol, (S)",138.2334,725.28,0.374,472.15,[NH4+].[C-]#N,00000000000000000100000000000000000000001000000000000000000000000000000000001000000000000000000000000000100000000000000000000000
alpha-methylstyrene,118.1784,654.0,0.323,438.65,[NH4+].[S-]C#N,00000000000000000100001000000000001000000000000000000000010000000000000000000000000000000000000000000000100000000000000000000000
alpha-phellandrene,136.23704,649.0,0.381,448.15,COc1ccc(C=CC)cc1,10000000000000000000000000000000010000000000000000000011000000000011000001001000110000100000000000001000000000000100000000000000
alpha-pinene,136.23704,644.0,0.221,429.29,Nc1ccccc1,00000000000000000001000000000000000000000000000001000000000000001000000000000000010000100000000000001000000000000000000010000000
"alpha-pinene, (-)",136.23704,647.0,0.341,428.15,CNc1ccc(cc1)C(C)C,11000000000000000000001000010000010000000000000000000000000000010000000000000000010001100010000000001000000000000000000000000000
alpha-terpinene,136.23704,649.0,0.372,448.15,COc1ccccc1,10000000000000000000000000000000010000000000000000000001000000001010000001000000010000100000000000001000000000000000000000000000
aluminum borohydride,71.509819,513.77,0.436,317.65,c1ccc2cc3ccccc3cc2c1,00000000000000000000000000000000000000000000000000000000000000011000000000000000010000100000000000001000000100000000000000000000
aluminum bromide,266.693539,763.0,0.399,528.15,O=C1c2ccccc2C(=O)c3ccccc13,00000000001000000000000000000000000000000000000000000000001000001000100000000000010000100000000010001000000000000000000000000000
aluminum chloride,133.339639,629.0,0.3555,453.15,Cl[Sb](Cl)(Cl)(Cl)Cl,00000000000000000001000000000000000000000000000000000010000000000000000000000100000000000000000000000000100000000000000000000000
aluminum iodide,407.694949,983.0,0.349,655.15,Cl[Sb](Cl)Cl,00000000000000000001000000000000000000000001000000000000000000000000000000000000000000000000000000000001000000000000000010000000
aminoacetonitrile,56.06724,638.0,0.466,425.0,Cl[As](Cl)Cl,00000100000000000001000000000000100000000000000000000100000000000000000000000000000000000000000000000000000000000000000000000000
ammonia,17.03056,405.65,0.2526,239.72,F[As](F)F,00000001100000000000000000001000100000000000000000000000000000000000000000000000000000000000000000000000000000000000000000000000
ammonium cyanide,44.05624,491.32,0.425,304.85,O=[As]O[As]=O,00000000001000000000000000000000000000000000000000000001000000000000001000001000000000000000000000000000000001000000000000000000
ammonium thiocyanate,76.12224,854.0,0.359,536.0,[AsH3],00000000000000000000000000000000000000000000000000000000000010000000000000000000000000000000000000000000000000000000000000000000
anethole,148.20468,723.0,0.485,508.45,[At],00000000000000000000000000000000000000000010000000000000000000000000000000000000000000000000000000000000000000000000000000000000
aniline,93.12832,699.0,0.378,457.15,c1ccc2cccc2cc1,00000000100000000000000000000000000000000000000000000000000000001000000000000000010000100000000000001000000000000000000000000000
"aniline, p-isopropyl-N-methyl-,",149.23584,690.0,0.69,502.03,c1ccc2cc3c(ccc4ccccc34)cc2c1,00000000000000000000000000000000000000000000000000000000000000011000000000000100010000100000000000001000000100000000000000000000
anisole,108.13992,645.6,0.35,426.73,O=Cc1ccccc1,00000000001000000000000000000000000000010000000000000010000000001000000000000000010000100000000000001000000010000100000000000000
anthracene,178.2334,873.0,0.486,615.18,NC(=O)c1ccccc1,00000000001010000001000000000000000000010000000000000100000000001000000000000000010000100000000000001000010000000000000000000100
anthraquinone,208.21632,900.0,0.681,653.05,c1ccccc1,00000000000000000000000000000000000000000000000000000000000000001000000000000000010000000000000000000000000000000000000000000000
antimony pentachloride,299.0205,662.54,0.129,449.15,SCc1ccccc1,00000000000000000000000000000000100000000000000000010000000000001000000000000000110000100010000000001100000000000000000000000000
antimony tribromide,361.469,904.0,0.269,553.15,OCCCc1ccccc1,00000000000000000000000000000000000000010000000000000000000000001000000000000000110000100111001000001000000000000000000100000000
antimony trichloride,228.1151,794.0,0.171,493.4,OC(=O)c1ccccc1,00000100001000000000000000000000000000010000000000000000000000001000000010000000010000100000000000001000010000000000000000000100
antimony triiodide,502.47041,1102.0,0.33,674.15,N#Cc1ccccc1,00000000000000000000001000000000001000000000000000000000000000001000000000000000010000100000000000001010100000001000000000000000
arsenic (III) bromide,314.63359,789.01,0.298,494.15,O=C(c1ccccc1)c2ccccc2,00000000011000000000000000000000000000010000000000000000000000001000000000000000010000100000000000001000010000000000000000000100
arsenic pentafluoride,169.913606,357.73,0.106,220.35,s1ccc2ccccc12,00000000000000100000000000000001000100000000000000000000000000011000000000000000010000100000000000001000000000000000010000000000
arsenic trichloride,181.27969,654.0,0.22,403.15,ClC(Cl)(Cl)c1ccccc1,00000000010000000001000000000000000100000000000000000000000000001000000000000010010000100000000000001000000000000010000000000000
arsenic trifluoride,131.9167996,530.21,0.363,330.95,FC(F)(F)c1ccccc1,00000000110000000000000000000000000000000100010000000000000000001000000000000000010000100000000000001000000000000010000000000000
arsenic triiodide,455.635,1101.22,0.357,697.15,ClC(=O)c1ccccc1,00000000001010000001010000000000000000010000000000000000000000001000000000000000010000100000000000001000010000000000000000000100
arsenic trioxide,197.84138,1200.0,0.0611,740.3,O=C(OOC(=O)c1ccccc1)c2ccccc2,00000000001000000100001000000000000000010000000000000001000000001000000000000000010000100000000000001000010000000000000000000100
arsine,77.94541,373.0,0.0105,210.67,CC(=O)OCc1ccccc1,00000000001100000001000000000000010000010000000000000001000000001000000000000000110000100010000000001000010000000000000001000100
astatine,210.0,1096.37,0.641,607.0,OCc1ccccc1,00000000000000000000000000000000000000010000000000000000000000001000010000000000110000100010001000001000000000000000000000000000
azulene,128.17352,773.48,0.355,515.16,O=C(OCc1ccccc1)c2ccccc2,00000000001000000101000000000000000000010000000000000001000000001000000000000000110000100010000000001000010000000000000000000100
benz[a]anthracene,228.29328,979.0,0.569,710.75,ClC(Cl)c1ccccc1,01001000000000000011000000000000000000000000000000000000000000001000000000000000010001100000000000001000000000000000000000000000
benzaldehyde,106.12404,695.0,0.313,451.9,CCOCc1ccccc1,00000000000000000000000000000000010000100000000000000001000000001000000010000000110000100010000000001000010000000000000000000000
benzamide,121.13872,824.0,0.559,563.15,O=COCc1ccccc1,00000000001000000000000000000001000000000000000000000011000000001000000000000000110000100010000000001010010010000000000000000000
benzene,78.11364,562.05,0.21,353.24,NCc1ccccc1,00000000000000000001000000000000000000000000000000000000000000001000000000000000110011100010000000001000000000000000000000000000
benzeneacetonitrile,117.15032,732.0,0.472,506.65,[Be++].[Br-].[Br-],00000000000010000001000000000000000000000000000000000000000000000000000000000000000000000000000000000000000000000000000000000000
benzenemethanethiol,124.20652,712.0,0.299,468.15,[Be++].[Cl-].[Cl-],00000000000000000001000000000000000000000000000000000000000000000000000000100000000000000000000000000000000000000000000000000000
benzenepropanol,136.19368,694.0,0.803,508.15,[Be++].[I-].[I-],00000000000000000001000000000000000000000000000000000000000000000000000000000000000000000000000000000000000000000000000000000000
benzoic acid,122.12344,751.0,0.603,522.4,CC(C)C1CCC(=C)C=C1,01000000000000000000000000010010010100000000011000000000000100000000000000100000010000100000000000001001000000000000000000010100
benzonitrile,103.12344,699.35,0.366,464.15,CC1(C)C2CCC(=C)C1C2,00000000000010001000000000000010010111000000010000000000000000100000000000100000000000100000000000001000000000000000000000110000
benzophenone,182.2218,830.0,0.502,579.24,C1=CC=C(C=C1)C(=O)C2=CC=CC=C2,00000000011000000000000000000000000000010000000000000000000000001000000000000000010000100000000000001000010000000000000000000100
benzothiophene,134.20164,754.0,0.296,493.05,O=C1CCO1,00000000001000001000000000000010000000000000000000000010011000000000000000100000000000000000000000001000000000000000000000000000
benzotrichloride,195.4748,737.0,0.26,486.65,C#CC#C,00000000000000000001000000000000001000000000000000000000000000000000000000000010000000000000000000000000000000010000000000000000
benzotrifluoride,146.1119096,559.9,0.3,375.2,C1CCC(CC1)C2CCCCC2,00001000000000000000000000000010000000000000010000000000000000000000000001000000000000000000000000000000000000000000000000010000
benzoyl chloride,140.5688,697.0,0.416,470.15,ClCCOCCCl,00000000000001000001000000000000000000000000000010000001000000000000000010000000100001000000000000000000000000000000000000000000
benzoyl peroxide,242.231,884.0,0.914,669.0,CCCCC(CC)COC(=O)CCCCC(=O)OCC(CC)CCCC,01000000101010000001000000101000010000110000000000000001000000000000000000000000100000000000000000010000001000000000001100000100
benzyl acetate,150.1772,699.0,0.473,487.15,CCCCC(CC)COCC(CC)CCCC,01000000100010000000000000100000010000100000000000000001000000000000000010000000100000000000000000010000000000000000001100000000
benzyl alcohol,108.13992,720.15,0.367,477.85,CCCCC(CC)COC(=O)c1ccc(cc1)C(=O)OCC(CC)CCCC,01000000101010000101000000100000010000110000000000000001000000000000000000000000110000100000000000011000010000000000001100000100
benzyl benzoate,212.24808,820.0,0.59,596.65,CCCCC(CC)CNCC(CC)CCCC,11000000100010000000000000100000010000100000000000000000000000000000000000000000100000000000001000010000000010000000000100000000
benzyl chloride,126.58528,686.0,0.314,452.55,CCC(C)CSCC(C)CC,01000000100000000000000000010000010000100000000000000000010000000000010000000000100000010000000000000000000000000000100000000000
benzyl dichloride,161.03004,731.0,0.326,487.0,ClCOCCl,00000000000000000001000000000000000000000000000000000001000000000000000010000000100001001000000000000000000000000000000000000000
benzyl ethyl ether,136.19368,662.0,0.433,458.15,N#CCCOCCC#N,00000000000001000000001000000100001000000000000000000001000000000100000010000000100000000000000000000000100000000000000000000000
benzyl formate,136.15032,698.0,0.42,476.15,CC(C)c1ccc2ccccc2c1C(C)C,01000000000000000000000000010000010000000000000000000000000000011000000000000100010000100010000000001000000001000000000000000000
benzylamine,107.1552,684.0,0.401,457.65,CSCSC,00000000001000000000001000000000010000000000000000000000000000000000000000100000100000000000000000000000000000000000100000000000
beryllium bromide,168.820182,1216.86,0.361,793.15,Cl[Bi](Cl)Cl,00000000000000000001000000000000000000000100000000000000000000000000000000000000000000000000000000000000000000000000000000100010
beryllium chloride,79.917582,1238.03,0.366,755.15,CC(C)(c1ccc(O)cc1)c2ccc(O)cc2,00000000110000000000000000000000010000010000000000000000000000000010000000000000010000100000000000001000010000000010000000000000
beryllium iodide,262.821122,1238.03,0.366,760.15,B1NBNBN1,00000000000000000000000000010000000000000000000000000000100000000000000000000000000000000010000000000000000000000000000100000000
beta-phellandrene,136.23704,648.0,0.374,447.15,BrB(Br)Br,00000000000000010000000000000000000000000000000000000000100000000000000000000000000000001001000000000000000000000000000000000000
beta-pinene,136.23704,643.0,0.325,439.19,ClB(Cl)Cl,00010000000000010001100000000000000000000000000000000000000000000000000000000000000000000000000000000000000000000000000000000000
"beta-pinene, (1R)",136.23704,647.0,0.341,437.75,FB(F)F,00000000100000010000100000000000000000000000000000000000000000000000000000000000000000000000000000000000000000000000000000000000
beta-propiolactone,72.06356,686.0,0.358,435.15,[Br],00000000000000000000000000000000000000000000000000000000000000000000000000000100000000000000000000000000000000000000000000000000
biacetylene,50.05988,478.02,0.1,283.46,Brc1ccccc1,00000000000001000000000000000000000000000000000000000000000000001000000000000000010000101000000100001000000000000000000000000000
bicyclohexyl,166.30668,727.0,0.428,512.19,FC(F)(Cl)Br,00000000100000000001000000000000000100000000010000000000000000000000000010000000010000001000000000000000000000000010000000000000
bis(2-chloroethyl) ether,143.01232,666.0,0.394,451.65,ClCBr,00000000000000000001000000000000000000000000000000000000000000000000000010000000100001001000000000000000000000000000000000010000
bis(2-ethylhexyl) adipate,370.57308,845.0,1.06,690.15,FC(Cl)(Cl)Br,00000000100000000001000000000000000100000000010000000000000000000000000000000000010000001000000000000000000000001010000000000000
bis(2-ethylhexyl) ether,242.44536,707.0,0.934,542.15,FC(F)Br,01000000100000000000000000100000000000000000000000000000000000100100000000000000000000001000000000000000000000000000000000000000
bis(2-ethylhexyl) terephthalate,390.56332,855.0,1.09,698.0,CCBr,00000000000000000001000000000000010000100000000000000000000000000000000000000000100000001000000000000000000000000000000000010000
bis(2-ethylhexyl)amine,241.46064,702.0,0.918,554.25,BrC(Br)Br,01000000000000000010000000000000000000000000000000000000000000100000000000000000000000001000000000000000000000000000000000000000
bis(2-methylbutyl) sulfide,174.35068,701.03,0.551,438.15,ClC(Cl)(Cl)Br,00000000000000000001000000000000000100000000000000000000000000000000000000000000010000001000000000100000000000000010000000000000
bis(chloromethyl) ether,114.95856,579.0,0.324,378.0,FC(F)=C(F)Br,10000000100000000000000000000000000000010000000100000000000000000000000000000000000000001001000000000000000000000000000000001000
bis(cyanoethyl) ether,124.1424,783.0,0.782,579.0,FC(F)(F)Br,00000000100000000000000000000000000000000000010000000000000000000000000000000000010000001000010000000000000000000010000000000000
bis(isopropyl)naphthalene,212.3348,808.25,0.605,581.25,C=CC=C.C=CC=C,00000000000000001000000000000000000000000000000000000010000000000000000000000000000000100000000000000000000001000000000000000000
bis(methylthio)methane,108.22852,624.0,0.306,421.15,CCCC,00000000000000000000000000100000010000100000000000000000000000000000000000000000100000000000000000000000000000000000000000000000
bismuth pentafluoride,303.972386,470.0,0.504,503.15,CCCCO,00000000000000000000000000100000010000110000000000000000000000000000000000000000100000000100001000000000000000000000000100000000
bismuth tribromide,448.69237,1220.0,0.288,726.15,CCCCOC(=O)C(C)CC,01000000101001000001000000110000010000110000000000000001000000000000000000000000100000000000000010000000000000000000000100000100