name,molweight,critical temperature (K),acentric factor,boiling point (K),SMILES,ECFP_Bits
"1-iodo-2,3-dimethylbutane",212.07369,614.19,0.668,438.15,CC\C=C/CI,00000000000000000000010000000000010000100000001000000010000000000000000000001000100000010000000000000000001000000000000000000000
1-iodo-2-ethylbutane,212.07369,619.72,0.635,439.15,C/C=C/CI,00000000000000000000010000000000010000000000000000000010000000000000000000001000100000010000000000000000001000000000000000000000
1-iodo-2-methyl-1-propene,182.00405,608.34,0.217,388.1,CC/C=C/CI,00000000000000000000010000000000010000100000001000000010000000000000000000001000100000010000000000000000001000000000000000000000
1-iodo-2-methyl-cis-2-butene,196.03093,628.8,0.261,410.98,CCCCI,00000000000000000000010000100000010000100000000000000000000000001000000000000000100000010000000000000000000000000000000100000000
1-iodo-2-methyl-trans-2-butene,196.03093,628.8,0.261,410.98,CCCCCCCCCCI,00000000000000000000010000100000010000100000000000000000000000001000000000000000100000010000000000000000000000000000000100000000
1-iodo-2-methylpentane,212.07369,610.59,0.739,441.15,CCCCCCCCCCCCCCCCCCCCCCI,00000000000000000000010000100000010000100000000000000000000000001000000000000000100000010000000000000000000000000000000100000000
1-iodo-2-methylpropane,184.01993,563.95,0.648,393.55,CCCCCCCCCCCCI,00000000000000000000010000100000010000100000000000000000000000001000000000000000100000010000000000000000000000000000000100000000
"1-iodo-3,3-dimethylbutane",212.07369,607.49,0.705,436.15,CCCCCCCCCCCCCCCCCCCCI,00000000000000000000010000100000010000100000000000000000000000001000000000000000100000010000000000000000000000000000000100000000
1-iodo-3-methyl-2-butene,196.03093,628.8,0.261,410.98,CCCCCCCCCCCCCCCCCCCCCI,00000000000000000000010000100000010000100000000000000000000000001000000000000000100000010000000000000000000000000000000100000000
1-iodo-3-methylpentane,212.07369,618.9,0.739,447.15,CCCCCCCCCCCCCCCCCI,00000000000000000000010000100000010000100000000000000000000000001000000000000000100000010000000000000000000000000000000100000000
1-iodo-4-methylpentane,212.07369,617.65,0.739,446.25,CCCCCCCI,00000000000000000000010000100000010000100000000000000000000000001000000000000000100000010000000000000000000000000000000100000000
1-iodo-cis-2-butene,182.00405,630.09,0.242,405.15,CCCCCCCCCCCCCCCCI,00000000000000000000010000100000010000100000000000000000000000001000000000000000100000010000000000000000000000000000000100000000
1-iodo-cis-2-pentene,196.03093,624.39,0.286,411.1,CCCCCCI,00000000000000000000010000100000010000100000000000000000000000001000000000000000100000010000000000000000000000000000000100000000
1-iodo-trans-2-butene,182.00405,630.09,0.242,405.15,CCCCCCCCCCCCCCCCCCCI,00000000000000000000010000100000010000100000000000000000000000001000000000000000100000010000000000000000000000000000000100000000
1-iodo-trans-2-pentene,196.03093,624.39,0.286,411.1,CCCCCCCCCI,00000000000000000000010000100000010000100000000000000000000000001000000000000000100000010000000000000000000000000000000100000000
1-iodobutane,184.01993,621.0,0.209,403.68,CCCCCCCCCCCCCCCCCCI,00000000000000000000010000100000010000100000000000000000000000001000000000000000100000010000000000000000000000000000000100000000
1-iododecane,268.18121,700.35,0.932,536.85,CCCCCCCCI,00000000000000000000010000100000010000100000000000000000000000001000000000000000100000010000000000000000000000000000000100000000
1-iododocosane,436.50377,858.41,0.883,701.15,CCCCCCCCCCCCCCCCCCCCCCCCCI,00000000000000000000010000100000010000100000000000000000000000001000000000000000100000010000000000000000000000000000000100000000
1-iodododecane,296.23497,730.57,0.992,571.35,CCCCCCCCCCCCCCCI,00000000000000000000010000100000010000100000000000000000000000001000000000000000100000010000000000000000000000000000000100000000
1-iodoeicosane,408.45001,833.96,0.969,680.15,CCCI,00000000000000000000010000100000010000100000000000000000000000001000000000000000100000010000000000000000000000000000000000000000
1-iodoheneicosane,422.47689,846.44,0.93,691.15,CCCCCCCCCCCCCCCCCCCCCCCCI,00000000000000000000010000100000010000100000000000000000000000001000000000000000100000010000000000000000000000000000000100000000
1-iodoheptadecane,366.36937,796.86,1.036,644.15,CCCCCCCCCCCCCCI,00000000000000000000010000100000010000100000000000000000000000001000000000000000100000010000000000000000000000000000000100000000
1-iodoheptane,226.10057,646.56,0.816,477.1,CCCCCCCCCCCCCCCCCCCCCCCI,00000000000000000000010000100000010000100000000000000000000000001000000000000000100000010000000000000000000000000000000100000000
1-iodohexadecane,352.34249,783.25,1.042,630.15,CCCCCCCCCCCCCI,00000000000000000000010000100000010000100000000000000000000000001000000000000000100000010000000000000000000000000000000100000000
1-iodohexane,212.07369,667.0,0.398,454.48,CCCCCCCCCCCI,00000000000000000000010000100000010000100000000000000000000000001000000000000000100000010000000000000000000000000000000100000000
1-iodononadecane,394.42313,820.94,1.0,668.15,CC(C)Cc1cccc2ccccc12,01000000000000000000000000010000010000000000000000000001000000011000010000000101110000100000000000001000000000000000000000000000
1-iodononane,254.15433,683.84,0.896,518.15,CC(C)c1c(C)cc(C)c2ccc(C)cc12,01000000000000000000000000010001010000000000000000000000001000000000000000000100010000100010000000001000000100010000000000000000
1-iodooctadecane,380.39625,808.59,1.022,656.15,CC(C)c1cccc2ccccc12,01000000000000000000000000010000010000000000000000000000000000011000000000000100010000100000000000001000000001000000000000000000
1-iodooctane,240.12745,665.98,0.857,498.26,CCC(O)COC,01000000100000000000000000000000010000110000000000000001000000000000000001000000100000000000000000010000000001000000001000000000
1-iodopentacosane,478.58441,899.0,0.7,731.15,CCCCCCCCCCOC,00000000000001000000000000100000010000100000000000000001000000000000000001000000100000000000000000000000000001000000000100000000
1-iodopentadecane,338.31561,771.45,1.04,617.15,CCCCCCCOC,00000000000001000000000000100000010000100000000000000001000000000000000001000000100000000000000000000000000001000000000100000000
1-iodopropane,169.99305,593.0,0.258,375.6,CCC1(C)CCCCC1,00001000001000000000000000000010010010100000000000010000000000000000000100000000100000000000000000000000000000000000000000100000
1-iodotetracosane,464.55753,885.88,0.767,722.15,CCC1(C)CCCC1,00001000001000000000000000000010010010100000000000010000000000000000000100000000100000000000000000000000000000000000000000100000
1-iodotetradecane,324.28873,758.94,1.03,603.15,CCC1(C)CC1,00000000001000000000000000000010010010100000000000010000000000000000000100000000100000000000000000000000000000000000000000100000
1-iodotricosane,450.53065,872.37,0.828,712.15,CC(C)C1(C)CCCC1,01001000001000000000001000010010010010000000000000000000000000000000000000000010000000000000000000000000000000000000000000100000
1-iodotridecane,310.26185,744.41,1.014,587.15,CCCC1(C)CCCCC1,00001000001000000000000000110010010010100000000000010000000000000000000000000000100000000000000000000000000000000000000000100000
1-iodoundecane,282.20809,715.99,0.964,554.65,CCCC1(C)CCCC1,00001000001000000000000000110010010010100000000000010000000000000000000000000000100000000000000000000000000000000000000000100000
1-isobutylnaphthalene,184.28104,772.68,0.508,552.65,CCc1cccc(C)c1CC,00000001000000000000000000000000010000100000000000000000001000001000010000000000110000100000000000001000000000010010000000000000
"1-isopropyl-2,4,7-trimethylnaphthalene",212.3348,808.25,0.605,581.25,CCc1ccc(C)c(CC)c1,00000001000000000000000000000000010000100000000000000000001000000000010000000000110000100010000000001000000100010000000000000000
1-isopropylnaphthalene,170.25416,769.66,0.463,540.94,CC(C)c1ccc(C)c(c1)C(C)C,01000000000000000000000000010000010000000000000000000000001000000000000000000000010001100000000000001000000101010000000000000000
1-methoxy-2-butanol,104.14908,582.0,0.783,407.15,CCc1ccc(CC)c(C)c1,00000001000000000000000000000000010000100000000000000000001000000000010000000000110000100010000000001000000100010000000000000000
1-methoxydecane,172.31096,640.0,0.656,506.13,CCc1cccc(CC)c1C,00000001000000000000000000000000010000100000000000000000001000001000010000000000110000100000000000001000000000000000000000001000
1-methoxyheptane,130.23032,563.33,0.415,424.15,CC(=C)c1ccccc1C,00000000000000000000000000000000010000010000000000000000001000001000000100000000010000101000000000001000000000010000000001000010
1-methyl-1-ethylcyclohexane,126.24192,633.38,0.292,425.31,Cc1ccccc1CC=C,00000000000000000000000000000000010000000000100000000010001000001000010000000000110000100000000000001000000001010000000000000000
1-methyl-1-ethylcyclopentane,112.21504,582.0,0.33,394.67,CCCCc1ccccc1C,00000000000000000000000000100000010000100000000000000000001000001000010000000000110000100001000000001000000000010000000100000000
1-methyl-1-ethylcyclopropane,84.16128,507.94,0.248,329.92,CCCCC(CC)C(C)O,01000000100000000000000000110100010000110000000000000000000000000000000000000000101000000000000000010000000000000000000100000000
1-methyl-1-isopropylcyclopentane,126.24192,626.05,0.292,421.15,CCc1ccc2ccccc2c1C,00000001000000000000000000000000010000100000000000000000001000011000010000000100110000100000000000001000000000000000000000001000
1-methyl-1-propylcyclohexane,140.2688,667.0,0.274,445.15,CC(C)Cc1ccccc1C,01000000000000000000000000010000010000000000000000000001001000001000010000000001110000100000000000001000000000010000000000000000
1-methyl-1-propylcyclopentane,126.24192,618.03,0.321,419.15,CC(C)C1CCCCC1C,01001000000000000000000000010110010000000000010000000000000000000001000000000000010000000000000000000000000000000000000000010100
"1-methyl-2,3-diethylbenzene",148.24804,680.84,0.441,479.75,CC(C)C1CCCC1C,01001000000000000000000000010110010000000000010000000000000000000001000000000000010000000000000000000000000000000000000000010100
"1-methyl-2,4-diethylbenzene",148.24804,678.57,0.441,478.15,CCCCCC1CCCCC1C,00001000000000000000000000100110010000100000010000000000000000001001000000000000100000000000000000100000000000000000000100010000
"1-methyl-2,4-diisopropylbenzene",176.3018,714.0,0.529,497.15,CCCc1ccccc1C,00000000000000000000000000100000010000100000000000000000001000001000010000000000110000100001000000001000000000010000000000000000
"1-methyl-2,5-diethylbenzene",148.24804,681.55,0.441,480.25,CCCC1CCCCC1C,00001000000000000000000000100110010000100000010000000000000000001001000000000000100000000000000000100000000000000000000000010000
"1-methyl-2,6-diethyl benzene",148.24804,683.96,0.441,481.95,CCCc1ccc2ccccc2c1C,00000000000000000000000000100000010000100000000000000000001000011000010000000100110000100001000000001000000000000000000000001000
1-methyl-2-(1-methylethenyl)benzene,132.20528,647.11,0.39,445.35,CCC(C)c1ccccc1C,01000000100000000000000000010000010000100000000000000000001000001000000000000000110000100000000000001000000001010000001000000000
1-methyl-2-allylbenzene,132.20528,682.45,0.356,455.65,Cc1ccccc1C(C)(C)C,00000000100000000000000000000000010100000000000000000000001100001000000000000000010000100000000000001000000000010010000000000000
1-methyl-2-butylbenzene,148.24804,683.67,0.442,481.15,CCc1ccc(C)cc1CC,00000001000000000000000000000001010000100000000000000000001000000000010000000000110000100000000000001000000100000000000000000000
1-methyl-2-ethyl-1-hexanol,144.2572,615.67,0.814,462.0,CCc1cc(C)cc(CC)c1,00000001000000000000000000000001010000100000000000000000001000000000000000000000110000000010000000001000000100000000000000000000
1-methyl-2-ethylnaphthalene,170.25416,775.02,0.493,549.15,CC(C)c1cc(C)cc(c1)C(C)C,01000000000000000000000000010001010000000000000000000000001000000000000000000000010001100000000000001000000100000000000000000000
1-methyl-2-isobutylbenzene,148.24804,671.35,0.412,469.15,CC(=C)c1cccc(C)c1,00000000000000000000000000000001010000010000000000000000001000001000000000000000010000101000000000001000010100000000000001000010
1-methyl-2-isopropylcyclohexane,140.2688,667.0,0.274,444.15,CC(C)Oc1cccc(C)c1,01000000000000000000000010010001010000000000000000000001001000001010000000000000010000100000000000001000000100000000000000000000
1-methyl-2-isopropylcyclopentane,126.24192,610.99,0.302,416.15,CCCCc1cccc(C)c1,00000000000000000000000000100001010000100000000000000000001000001000000000000000110000100011000000001000000100000000000100000000
1-methyl-2-pentylcyclohexane,168.32256,691.81,0.456,490.65,CCCC(CC)CC(C)O,01000000100010000100000000110000010000111000000000000000000000000000000000000000100000000000000000010000000000000000000000000000
1-methyl-2-propylbenzene,134.22116,662.0,0.407,457.95,CCC1CCC(C)C1,00000000000010000000000000000110010000100000011000000000000000000000000000000000100000000000000000000000000000000000000000011000
1-methyl-2-propylcyclohexane,140.2688,667.0,0.274,449.15,CCc1cc(C)c2ccccc2c1,00000001000000000000000000000000010000100000000000000000001000011000000000000100110000100010000000001000000100010000000000000000
1-methyl-2-propylnaphthalene,184.28104,812.35,0.537,585.41,CC(C)Cc1cccc(C)c1,01000000000000000000000000010001010000000000000000000001001000001000000000000001110000100010000000001000000100000000000000000000
1-methyl-2-sec-butylbenzene,148.24804,671.35,0.412,469.15,CC1CCCC(C1)C(C)C,01001000000010000000000000010110010000000000010000000000001000000000000000000000000000000000000000000000000000000000000000011100
1-methyl-2-tert-butyl benzene,148.24804,687.73,0.351,473.6,CC(C)c1cc(C)c2ccccc2c1,01000000000000000000000000010000010000000000000000000000001000011000000000000100010001100000000000001000000100010000000000000000
"1-methyl-3,4-diethylbenzene",148.24804,676.58,0.441,476.75,CCCc1cccc(C)c1,00000000000000000000000000100001010000100000000000000000001000001000000000000000110000100011000000001000000100000000000000000000
"1-methyl-3,5-diethylbenzene",148.24804,672.46,0.441,473.85,CCCC1CCCC(C)C1,00001000000010000000000000100110010000100000010000000000000000001000000000000000100000000000000000000000000000000000000000011000
"1-methyl-3,5-diisopropylbenzene",176.3018,714.0,0.529,489.65,CCC(C)c1cccc(C)c1,01000000100000000000000000010001010000100000000000000000001000001000000000000000110001100000000000001000000100000000001000000000
1-methyl-3-(1-methylethenyl)benzene,132.20528,665.71,0.39,458.15,Cc1cccc(c1)C(C)(C)C,00000000110000000000000000000001010000000000000000000000001100001000000000000000010000100000000000001000000100000010000000000000
1-methyl-3-(1-methylethoxy)benzene,150.22056,670.0,0.445,469.65,CC(=C)c1ccc(C)cc1,00000000000000000000000000000001010000010000000000000000001000000000000000000000010000101000000000001000010000000000000001000010
1-methyl-3-butylbenzene,148.24804,679.41,0.442,478.15,CCCCc1ccc(C)cc1,00000000000000000000000000100001010000100000000000000000001000000000000000000000110000100011000000001000000000000000000100000000
1-methyl-3-ethyl-1-hexanol,144.2572,619.87,0.814,465.15,CCc1ccc(C)c2ccccc12,00000001000000000000000000000000010000100000000000000000001000001000010000000100110000100000000000001000000000010000000000000000
1-methyl-3-ethylcyclopentane,112.21504,585.27,0.276,394.2,CC(C)Cc1ccc(C)cc1,01000000000000000000000000010001010000000000000000000001001000000000000000000001110000100010000000001000000000000000000000000000
1-methyl-3-ethylnaphthalene,170.25416,770.78,0.493,546.15,CC1CCC(CC1)C(C)C,01000000000000000000000000010110010000000000010000000000001000000000000000000000000000000000000000000000000000000000000000011100
1-methyl-3-isobutylbenzene,148.24804,668.49,0.412,467.15,CC(C)c1ccc(C)c2ccccc12,01000000000000000000000000010000010000000000000000000000001000001000000000000100010000100000000000001000000001010000000000000000
1-methyl-3-isopropylcyclohexane,140.2688,667.0,0.274,439.65,CCCc1ccc(C)cc1,00000000000000000000000000100001010000100000000000000000001000000000000000000000110000100011000000001000000000000000000000000000
1-methyl-3-isopropylnaphthalene,184.28104,817.54,0.507,585.41,CCCC1CCC(C)CC1,00000000000000000000000000100110010000100000010000000000000000001000000000000000100000000000000000000000000000000000000000011000
1-methyl-3-propylbenzene,134.22116,654.0,0.413,454.95,CCC(C)c1ccc(C)cc1,01000000100000000000000000010001010000100000000000000000001000000000000000000000110001100000000000001000000000000000001000000000
1-methyl-3-propylcyclohexane,140.2688,667.0,0.274,437.65,Cc1ccc(cc1)C(C)(C)C,00000000110000000000000000000001010000000000000000000000001100000000000000000000010000100000000000001000000000000010000000000000
1-methyl-3-sec-butylbenzene,148.24804,668.49,0.412,467.15,CC1=CCC(CC1)C=C,00000000000000000000000000000010010000000000110000000010001100001000000000100000010000100000000000001000000001000000010000010000
1-methyl-3-tert-butylbenzene,148.24804,671.48,0.351,462.41,CCc1cccc2c(C)cccc12,00000001000000000000000000000000010000100000000000000000001000001000010000000100110000100000000000001000000000010000000000000000
1-methyl-4-(1-methylethenyl)benzene,132.20528,667.16,0.39,459.15,CCc1ccc2c(C)cccc2c1,00000001000000000000000000000000010000100000000000000000001000011000000000000100110000100010000000001000000100010000000000000000
1-methyl-4-butylbenzene,148.24804,682.25,0.442,480.15,CC(C)c1ccc2c(C)cccc2c1,01000000000000000000000000010000010000000000000000000000001000011000000000000100010001100000000000001000000100010000000000000000
1-methyl-4-ethylnaphthalene,170.25416,772.19,0.493,547.15,CCc1ccc2cccc(C)c2c1,00000001000000000000000000000000010000100000000000000000001000011000000000000100110000100010000000001000000100010000000000000000
1-methyl-4-isobutylbenzene,148.24804,671.35,0.412,469.15,CC(C)c1ccc2cccc(C)c2c1,01000000000000000000000000010000010000000000000000000000001000011000000000000100010001100000000000001000000100010000000000000000
1-methyl-4-isopropylcyclohexane,140.2688,667.0,0.274,443.85,CCc1cccc2cccc(C)c12,00000001000000000000000000000000010000100000000000000000001000011000010000000000110000100000000000001000000000010000000000000000
1-methyl-4-isopropylnaphthalene,184.28104,817.54,0.507,585.41,CC1CCCc2ccccc12,00011000000000000000000000000110010000000010010000000000000000001000000000100000010010100000000000001000000000000000000000010000
1-methyl-4-propylbenzene,134.22116,656.0,0.413,456.45,CC[C@H]1CCCC[C@H]1C,00001000000000000000000000000110010000100000011000000000000000000001000000000000100000000000000000100000000000000000000000010000
1-methyl-4-propylcyclohexane,140.2688,667.0,0.274,448.65,CC[C@H]1CCC[C@H]1C,00001000000000000000000000000110010000100000011000000000000000000001000000000000100000000000000000100000000000000000000000010000
1-methyl-4-sec-butylbenzene,148.24804,672.78,0.412,470.15,CC[C@H]1C[C@H]1C,00000000000010000000000000000110010000100000001000000000000000000001000000000000100000000000000000100000000000000000000000010000
1-methyl-4-tert-butylbenzene,148.24804,676.56,0.351,465.91,CC(C)[C@H]1CCC[C@H]1C,01001000000000000000000000010110010000000000010000000000000000000001000000000000010000000000000000000000000000000000000000010100
1-methyl-4-vinylcyclohexene,122.21016,626.0,0.345,425.15,CCC[C@H]1CCC[C@H]1C,00001000000000000000000000100110010000100000010000000000000000001001000000000000100000000000000000100000000000000000000000010000
1-methyl-5-ethylnaphthalene,170.25416,766.55,0.493,543.15,CC[C@@H]1CCC[C@H](C)C1,00001000000010000000000000000110010000100000011000000000000000000000000000000000100000000000000000000000000000000000000000011000
1-methyl-6-ethylnaphthalene,170.25416,770.78,0.493,546.15,CC[C@@H]1CC[C@H](C)C1,00000000000010000000000000000110010000100000011000000000000000000000000000000000100000000000000000000000000000000000000000011000
1-methyl-6-isopropylnaphthalene,184.28104,817.54,0.507,585.41,C[C@H]1CC[C@H](C1)C(C)C,01000000000010000000000000010110010000000000010000000000001000000000000000000000000000000000000000000000000000000000000000011100
1-methyl-7-ethylnaphthalene,170.25416,767.96,0.493,544.15,CCC[C@@H]1CC[C@H](C)C1,00000000000010000000000000100110010000100000010000000000000000001000000000000000100000000000000000000000000000000000000000011000