name,molweight,critical temperature (K),acentric factor,boiling point (K),SMILES,ECFP_Bits
"1,1-diphenyl-1-heptene",250.38368,817.04,0.632,613.15,CCCCCCCCCC(c1ccccc1)c2ccccc2,01000100000000000000000000100000010000100000000000000000000000001000000000000000110001100000000000011000000000000000000100000000
"1,1-diphenyl-1-hexadecene",376.6256,881.36,0.8,713.15,CCCCCCCCCCCC(c1ccccc1)c2ccccc2,01000100000000000000000000100000010000100000000000000000000000001000000000000000110001100000000000011000000000000000000100000000
"1,1-diphenyl-1-hexene",236.3568,803.6,0.593,594.95,CC(c1ccccc1)c2ccccc2,01000001000000000000000000010000010000000000000000000000000000001000000000000000010001100000000000001000000000000000000000000000
"1,1-diphenyl-1-nonene",278.43744,835.6,0.703,642.15,C=C(c1ccccc1)c2ccccc2,00000000000000000000000000000000000000010000000000000000000000001000000000000000010001100000000000001000010000000000000000000010
"1,1-diphenyl-1-octene",264.41056,828.02,0.669,629.15,CCCCCCC(c1ccccc1)c2ccccc2,01000100000000000000000000100000010000100000000000000000000000001000000000000000110001100000000000011000000000000000000100000000
"1,1-diphenyl-1-pentadecene",362.59872,875.43,0.805,705.15,CCCCCCCCCCCCCCCC(c1ccccc1)c2ccccc2,01000100000000000000000000100000010000100000000000000000000000001000000000000000110001100000000000011000000000000000000100000000
"1,1-diphenyl-1-pentene",222.32992,797.63,0.552,581.91,CCCCCC(c1ccccc1)c2ccccc2,01000100000000000000000000100000010000100000000000000000000000001000000000000000110001100000000000011000000000000000000100000000
"1,1-diphenyl-1-propene",194.27616,796.49,0.465,562.15,CCCCCCCCC(c1ccccc1)c2ccccc2,01000100000000000000000000100000010000100000000000000000000000001000000000000000110001100000000000011000000000000000000100000000
"1,1-diphenyl-1-tetradecene",348.57184,868.99,0.804,696.15,CCCCCCCC(c1ccccc1)c2ccccc2,01000100000000000000000000100000010000100000000000000000000000001000000000000000110001100000000000011000000000000000000100000000
"1,1-diphenyl-1-tridecene",334.54496,863.24,0.795,687.15,CCCCCCCCCCCCCCC(c1ccccc1)c2ccccc2,01000100000000000000000000100000010000100000000000000000000000001000000000000000110001100000000000011000000000000000000100000000
"1,1-diphenyl-1-undecene",306.4912,850.03,0.759,666.15,CCCCC(c1ccccc1)c2ccccc2,01000100000000000000000000100000010000100000000000000000000000001000000000000000110001100000000000011000000000000000000100000000
"1,1-diphenylbutane",210.31892,778.3,0.452,557.44,CCC(c1ccccc1)c2ccccc2,01000100100000000000000000000000010000100000000000000000000000001000000000000000110001100000000000001000000000000000000000000000
"1,1-diphenyldecane",294.4802,822.0,0.695,634.15,CCCCCCCCCCCCCC(c1ccccc1)c2ccccc2,01000100000000000000000000100000010000100000000000000000000000001000000000000000110001100000000000011000000000000000000100000000
"1,1-diphenyldodecane",322.53396,832.8,0.83,659.15,CCCCCCCCCCCCC(c1ccccc1)c2ccccc2,01000100000000000000000000100000010000100000000000000000000000001000000000000000110001100000000000011000000000000000000100000000
"1,1-diphenylethane",182.26516,775.0,0.457,545.78,CCCCCCCCCCC(c1ccccc1)c2ccccc2,01000100000000000000000000100000010000100000000000000000000000001000000000000000110001100000000000011000000000000000000100000000
"1,1-diphenylethene",180.24928,791.64,0.431,550.25,OCCCCCCCCCCO,00000000000000000000000000000000000000010000000000000000000000000000000000000000100000000100001000000000000000000000000100000000
"1,1-diphenylheptane",252.39956,802.7,0.662,607.15,BrCCCCCCCCCCBr,00000000000000000000000000000000000000000000000000000000000000000000000000000000100000001000000000000000000000010000000100010000
"1,1-diphenylhexadecane",378.64148,850.1,0.958,691.15,ClCCCCCCCCCCCl,00000000000000000001000000000000000000000000000010000000000000000000000000000000100001000000000000000000000000000000000100000000
"1,1-diphenylhexane",238.37268,794.4,0.625,594.18,ICCCCCCCCCCI,00000000000000000000010000000000000000000000000000000000000000001000000000000000100000010000000000000000000000000000000100000000
"1,1-diphenylnonane",280.45332,816.5,0.731,630.15,BrCCCCCCCCCCCBr,00000000000000000000000000000000000000000000000000000000000000000000000000000000100000001000000000000000000000010000000100010000
"1,1-diphenyloctane",266.42644,810.0,0.698,619.15,BrCCCCCCCCCCCCBr,00000000000000000000000000000000000000000000000000000000000000000000000000000000100000001000000000000000000000010000000100010000
"1,1-diphenylpentadecane",364.6146,846.7,0.922,684.15,ClCCCCCCCCCCCCCl,00000000000000000001000000000000000000000000000010000000000000000000000000000000100001000000000000000000000000000000000100000000
"1,1-diphenylpentane",224.3458,786.4,0.587,581.04,BrCCCCCCCCCCCCCBr,00000000000000000000000000000000000000000000000000000000000000000000000000000000100000001000000000000000000000010000000100010000
"1,1-diphenylpropane",196.29204,774.3,0.508,556.37,BrCCCCCCCCCCCCCCBr,00000000000000000000000000000000000000000000000000000000000000000000000000000000100000001000000000000000000000010000000100010000
"1,1-diphenyltetradecane",350.58772,842.2,0.892,676.15,BrCCCCCCCCCCCCCCCCBr,00000000000000000000000000000000000000000000000000000000000000000000000000000000100000001000000000000000000000010000000100010000
"1,1-diphenyltridecane",336.56084,838.0,0.863,668.15,BrCCCCCCCCCCCCCCCCCBr,00000000000000000000000000000000000000000000000000000000000000000000000000000000100000001000000000000000000000010000000100010000
"1,1-diphenylundecane",308.50708,827.9,0.798,650.15,CCCCCCCCCCC(C1=CC=CC=C1)C2=CC=CC=C2,01000100000000000000000000100000010000100000000000000000000000001000000000000000110001100000000000011000000000000000000100000000
"1,10-decanediol",174.28348,747.0,0.919,574.0,BrCC(Br)(Br)CBr,00000000000000000000100000000000000000000000000000000000000000000000000000000010110000001000000000000000000000000010000000010000
"1,10-dibromodecane",300.0768,741.82,0.701,550.15,ClCC(Cl)(Cl)CCl,00000000000001000001000000000000000100000000000000000000000000000000000000000000100001000000000000000000001000000010000000000000
"1,10-dichlorodecane",211.1742,704.32,0.57,520.15,FCC(F)(F)CF,00000000100000000000000000000000000000000000010000000000000100000000000000000000100000010000000000000000000000000010000100000000
"1,10-diiododecane",394.07774,836.2,0.55,614.04,ICC(I)(I)CI,00000000000000000000011000000000010000000000000000000000000000000000000000000000100000010000000000000000000000000010100000000000
"1,11-dibromoundecane",314.10368,754.56,0.741,567.15,C(CCCCCBr)CCCCCBr,00000000000000000000000000000000000000000000000000000000000000000000000000000000100000001000000000000000000000010000000100010000
"1,12-dibromododecane",328.13056,766.37,0.779,583.15,C(CCCCCCBr)CCCCCBr,00000000000000000000000000000000000000000000000000000000000000000000000000000000100000001000000000000000000000010000000100010000
"1,12-dichlorododecane",239.22796,733.47,0.647,572.15,CCC(Br)(Br)CBr,00000000000000000000100000000000010000110000000000000000000000000000000000000010110000001000000000000000000000000010000000010000
"1,13-dibromotridecane",342.15744,777.32,0.813,598.15,CC(Br)(Br)CBr,00000000100000000000100000000000010000000000000000000000000000000000000000000000110000001000000000000000000000000010000010010000
"1,14-dibromotetradecane",356.18432,787.47,0.843,612.15,FC(F)(Cl)C(Cl)Cl,01000000100000000011001000000000000100000000010000000000000000000000000000000000000000000000000000000000000000000010010000000000
"1,16-dibromohexadecane",384.23808,808.08,0.889,639.15,CCC(Cl)(Cl)CCl,00000000000001000001000000000000010100110000000000000000000000000000000000000000100001000000000000000000001000000010000000000000
"1,17-dibromoheptadecane",398.26496,818.59,0.904,652.15,CC(Cl)(Cl)CCl,00000000100000000001000000000000010100000000000000000000000000000000000000000000100001000000000000000000001000001010000000000000
"1,19-nonanecanediol",300.5254,855.38,1.065,698.15,CCC(F)(F)CF,00000000100000000000000000000000010000110000010000000000000100000000000000000000100000010000000000000000000000000010000100000000
"1,2,2,3-tetrabromopropane",359.68076,782.3,0.587,523.15,CC(F)(F)CF,00000000100000000000000000100000010000000000010000000000000100000000000000000000100000010000000000000000000000000010000000000000
"1,2,2,3-tetrachloropropane",181.87556,662.36,0.31,437.15,CCC(I)(I)CI,00000000000000000000011000000000010000110000000000000000000000000000000000000000100000010000000000000000000000000010100000000000
"1,2,2,3-tetrafluoropropane",116.0583728,453.25,0.306,300.0,CC(I)(I)CI,00000000100000000000011001000000010000000000000000000000000000000000000000000000100000010000000000000000000000000010000000000000
"1,2,2,3-tetraiodopropane",547.68264,983.52,0.268,637.37,Clc1ccc(Cl)c(Cl)c1Cl,00000000000000000001000000000000000000000000000001000000000000000000000000000000010000100000000000001000000000100001000000000000
"1,2,2,cis-3-tetramethylcyclopentane",126.24192,609.74,0.271,411.15,CCc1ccc(CC)c(CC)c1CC,00000001000000000000000000000000010000100000000000000000000000000000010000000000110000100000000000001000000000000010000000000000
"1,2,2,trans-3-tetramethylcyclopentane",126.24192,609.74,0.271,411.15,CC1CCc2cc(C)ccc2C1(C)C,00000000000000000000000000000111010010000000010000000000001010000000000000100000010010100000000000001000001100000000000000110000
"1,2,2-tribromobutane",294.81158,727.5,0.495,486.95,Cc1ccc2c(CCCC2(C)C)c1,00001000001000000000000000000011010010000000000000000000011010000000000000100000010010100000000000001000000100000000000000100000
"1,2,2-tribromopropane",280.7847,709.19,0.451,464.15,CC1(C)CCCc2ccccc12,00001000001000000000000000000010010010000000000000000000010010001000000000100000010010100000000000001000000000000000000000100000
"1,2,2-trichloro-1,1-difluoroethane",169.3848464,529.0,0.288,345.05,CC1CCc2ccccc2C1C,00010000000000000000000000000110010000000000010000000010000000001001000000100000010010100000000000001000000000000000000000010000
"1,2,2-trichlorobutane",161.45768,663.82,0.3,440.0,CC1CC(C)c2ccccc2C1,00010000000010000000000000000110010000000010000000000000000000001000000000000000010010100000000000001001000000000000000000011000
"1,2,2-trichloropropane",147.4308,611.68,0.256,396.15,CC1CCC(C)c2ccccc12,00010000000000000000000000000110010000000010010000000000000000001000000000000000010000100000000000001000000000000000000000010000
"1,2,2-trifluorobutane",112.0947896,429.82,0.298,285.5,CC1CCCc2c(C)cccc12,00011000000000000000000000000110010000000010010000000000001000001000000000100000010000100000000000001000010000010000000000010000
"1,2,2-trifluoropropane",98.0679096,404.58,0.254,262.62,CC1(C)CCc2ccccc2C1,00000000001000000000000000000010010010000000100000000000000000001000000000100001010010100000000000001000000000000000000000100000
"1,2,2-triiodobutane",435.81299,867.15,0.269,567.11,CC1Cc2ccccc2CC1C,00000000000000000000000000000110010000000000000000000000000000001001000000000000010010100000000000001001000000000000000000010000
"1,2,2-triiodopropane",421.78611,852.51,0.225,544.23,CC1CCc2c(C)ccc(C)c2C1,00000000000000000000000000000110010000000000010000000000001000000000000000100000010000100000000000001001010000010000000000011000
"1,2,3,4-tetrachlorobenzene",215.89268,772.88,0.437,527.25,CC1CCc2c(C)cccc2C1,00000000000000000000000000000110010000000000010000000000001000001000000000100000010010100000000000001001010000010000000000011000
"1,2,3,4-tetraethylbenzene",190.32868,708.2,0.562,524.16,CC1CCc2cc(C)ccc2C1,00000000000000000000000000000111010000000000010000000000001000000000000000100000010010100000000000001001000100000000000000011000
"1,2,3,4-tetrahydro-1,1,2,6-tetramethylnaphthalene",188.3128,760.47,0.511,546.31,CC1CCc2ccc(C)cc2C1,00000000000000000000000000000111010000000000010000000000001000000000000000100000010010100000000000001001000100000000000000011000
"1,2,3,4-tetrahydro-1,1,6-trimethylnaphthalene",174.28592,749.21,0.468,513.15,CC1CCc2cccc(C)c2C1,00000000000000000000000000000110010000000000010000000000001000001000000000100000010010100000000000001001010000010000000000011000
"1,2,3,4-tetrahydro-1,1-dimethylnaphthalene",160.25904,737.62,0.424,494.15,Cc1ccc2CCCCc2c1C,00001000000000000000000000000010010000000000000000000000001000000000000000100000010010100000000000001000010000010000000000001000
"1,2,3,4-tetrahydro-1,2-dimethylnaphthalene",160.25904,737.62,0.424,508.15,Cc1cc(C)c2CCCCc2c1,00001000000000000000000000000011010000000000000000000000001000000000000000100000010010000000000000001000010100010000000000000000
"1,2,3,4-tetrahydro-1,3-dimethylnaphthalene",160.25904,737.62,0.424,507.15,Cc1ccc(C)c2CCCCc12,00001000000000000000000000000010010000000000000000000000001000000000000000100000010000100000000000001000010000010000000000000000
"1,2,3,4-tetrahydro-1,4-dimethylnaphthalene",160.25904,737.62,0.424,499.15,CC(C)Cc1cccc2CCCCc12,01001000000000000000000000010010010000000000000000000001000000001000010000100001110010100000000000001000010000000000000000000000
"1,2,3,4-tetrahydro-1,5-dimethylnaphthalene",160.25904,737.62,0.424,512.15,Cc1cccc2CCCCc12,00001000000000000000000000000010010000000000000000000000001000001000000000100000010010100000000000001000010000010000000000000000
"1,2,3,4-tetrahydro-2,2-dimethylnaphthalene",160.25904,737.62,0.424,503.15,Cc1cc2CCCCc2cc1C,00001000000000000000000000000010010000000000000000000000001000000000000000100000010010000000000000001000000100010000000000000000
"1,2,3,4-tetrahydro-2,3-dimethylnaphthalene",160.25904,737.62,0.424,506.74,CCc1ccc2c(c1)C(C)(C)CCC2(C)C,00000001001000000000000000000010010010100000000000000000010010000000000000000000110000100010000000001000000100000000000000100000
"1,2,3,4-tetrahydro-2,5,8-trimethylnaphthalene",174.28592,749.21,0.468,525.62,Cc1ccc2CCCCc2c1,00001000000000000000000000000011010000000000000000000000001000000000000000100000010010100000000000001000000100000000000000000000
"1,2,3,4-tetrahydro-2,5-dimethylnaphthalene",160.25904,737.62,0.424,509.15,C1CCc2ccccc2C1,00001000000000000000000000000010000000000000000000000000000000001000000000100000010010100000000000001000000000000000000000000000
"1,2,3,4-tetrahydro-2,6-dimethylnaphthalene",160.25904,737.62,0.424,513.15,Cc1ccc(C)c(C)c1C,00000000000000000000000000000000010000000000000000000000001000000000000000000000010000100000000000001000000000010000000000001000
"1,2,3,4-tetrahydro-2,7-dimethylnaphthalene",160.25904,737.62,0.424,510.15,CC1CCC(C)C(C)C1C,00000000000000000000000000000110010000000000010000000000000000000001000000000000000000000000010000000000000000000000000000010000
"1,2,3,4-tetrahydro-2,8-dimethylnaphthalene",160.25904,737.62,0.424,509.15,Cc1c(C)c(C)c2ccccc2c1C,00000000000000000000000000000000010000000000000000000000001000001000000000000100010000100000000000001000000000000000000000001000
"1,2,3,4-tetrahydro-5,6-dimethylnaphthalene",160.25904,737.62,0.424,525.15,Clc1cc(Cl)c(Cl)c(Cl)c1,00000000000000000001000000000000000000000000000001000000000000000000000000000000010000001000000000001000000100100001000000000000
"1,2,3,4-tetrahydro-5,7-dimethylnaphthalene",160.25904,737.62,0.424,526.15,CCc1cc(CC)c(CC)c(CC)c1,00000001000000000000000000000000010000100000000000000000000000000000010000000000110000000010000000001000000100000010000000000000
"1,2,3,4-tetrahydro-5,8-dimethylnaphthalene",160.25904,737.62,0.424,527.15,Cc1cc(C)c(C)c(C)c1,00000000000000000000000000000001010000000000000000000000001000000000000000000000010000000000000000001000000100010000000000001000
"1,2,3,4-tetrahydro-5-isobutylnaphthalene",188.3128,760.47,0.511,543.55,Cc1ccc2c(c1)cc(C)c(C)c2C,00000000000000000000000000000001010000000000000000000000001000010000000000000100010000100000000000001000000100010000000000001000
"1,2,3,4-tetrahydro-5-methylnaphthalene",146.23216,721.7,0.379,507.15,Oc1cccc(O)c1O,00000000000000000000000000000000000000010000000000000000000000001010000100100000010000100000000000001000000000000000000000000000
"1,2,3,4-tetrahydro-6,7-dimethylnaphthalene",160.25904,737.62,0.424,525.15,CC(Br)(CBr)CBr,00000000100000000000100000000000010000000000000000000000000000000000000000000000110000001000000000000000000000000010000000010000
"1,2,3,4-tetrahydro-6-ethyl-1,1,4,4-tetramethylnaphthalene",216.36656,780.71,0.594,580.65,CC(Br)C(Br)CBr,01000000000000000000000000010000010000000000000010000000000000100000000000100000100000001001000000000000000000000000000000010000
"1,2,3,4-tetrahydro-6-methylnaphthalene",146.23216,721.7,0.379,502.15,BrCC(Br)CBr,01001000000000000000000000000000000000000000000000000000000000100000000000000000100000001001000000000000000000000000000000010000
"1,2,3,4-tetrahydronaphthalene",132.20528,720.0,0.335,480.77,CC(Cl)C(C)(Cl)CCl,01000000100000000011000000011000010100000000000000000000000000000000000000000000100001000000000000000000001000000010000000000001
"1,2,3,4-tetramethylbenzene",134.22116,693.0,0.417,478.19,CC(Cl)(CCl)CCl,00000000100000000001000000000000010100000000000000000000000000000000000000000000100001000000000000000000001000000010000000000000
"1,2,3,4-tetramethylcyclohexane",140.2688,642.0,0.402,449.2,Cc1ccc(Cl)c(Cl)c1Cl,00000000000000000001000000000000010000000000000001000000001000000000000000000000010000100000000000001000000000110001000000000000
"1,2,3,4-tetramethylnaphthalene",184.28104,810.54,0.535,585.41,Cc1cc(Cl)c(Cl)c(Cl)c1,00000000000000000001000000000001010000000000000001000000001000000000000000000000010000000000000000001000000100100001000000000000
"1,2,3,5-tetrachlorobenzene",215.89268,761.15,0.437,519.25,Clc1cccc(Cl)c1Cl,00000000000000000001000000000000000000000000000001000000000000001000000000000000010000100000000000001000000000100001000000000000
"1,2,3,5-tetraethylbenzene",190.32868,708.0,0.594,522.0,CC(Cl)C(Cl)CCl,01000000000000000011000000010010010000000000000000000000000000000000000000000000100001000000000000000000000000000000010001000000
"1,2,3,5-tetramethylbenzene",134.22116,679.0,0.424,471.15,ClCC(Cl)CCl,01000000000000000011000000000000000000000000000000000000000000000000000000000000100001000000000000000000000000000010010000000000
"1,2,3,6-tetramethylnaphthalene",184.28104,810.54,0.535,585.41,CCc1cccc(CC)c1CC,00000001000000000000000000000000010000100000000000000000000000001000010000000000110000100000000000001000000000000010000000000000
"1,2,3-benzenetriol",126.11184,830.0,0.945,581.85,C1=CC(=C(C(=C1)O)O)O,00000000000000000000000000000000000000010000000000000000000000001010000100100000010000100000000000001000000000000000000000000000
"1,2,3-tribromo-2-methylpropane",294.81158,736.76,0.495,493.15,CC(F)C(F)CF,01000000100000000000000000110000010000000000000000000000000000000000000000000000100000010000000100000000000000000000000000100000
"1,2,3-tribromobutane",294.81158,730.78,0.531,493.15,FCC(F)CF,01000000100000000000000000100000000000000000000000000000000000000000000000000000100000010000000000000000000000000000000000000001
"1,2,3-tribromopropane",280.7847,743.76,0.52,495.31,CC(I)(CI)CI,00000000100001000000011000000000010000000000000000000000000000000000000000000000100000010000000000000000000000000010000000000000
"1,2,3-trichloro-2-methylbutane",175.48456,635.09,0.345,457.15,CC(I)C(I)CI,01000100000000001000010000010000010000000000000000000000000000000000000000000000100100010000000000000000100000000000000000000000
"1,2,3-trichloro-2-methylpropane",161.45768,659.52,0.3,437.15,ICC(I)CI,01000100000000001000010000000000000000000000000000000000000000000000000000000000100000010100000000000000000000000000000000000000
"1,2,3-trichloro-4-methylbenzene",195.4748,737.0,0.26,517.15,CCc1ccc(C)c(C)c1C,00000001000000000000000000000000010000100000000000000000001000000000010000000000110000100000000000001000000000010000000000001000
"1,2,3-trichloro-5-methylbenzene",195.4748,737.0,0.26,519.15,CCc1cc(C)c(C)c(C)c1,00000001000000000000000000000000010000100000000000000000001000000000000000000000110000000010000000001000000100010000000000001000
"1,2,3-trichlorobenzene",181.44792,734.0,0.426,491.75,Cc1cccc(C)c1C,00000000000000000000000000000000010000000000000000000000001000001000000000000000010000100000000000001000000000010000000000001000