name,molweight,critical temperature (K),acentric factor,boiling point (K),SMILES,ECFP_Bits
ethyl methacrylate,114.1442,577.0,0.344,390.15,CC(O)=O.CC(O)=O.OCCO,00000100001000000000000000000000010000010000000000000000000000000000000000000000100000000100001000000000000000000000000001001100
ethyl methyl sulfate,140.16012,775.0,0.126,472.42,OCCO.OC(=O)C=C.OC(=O)C=C,00000100001000000000000000000000000000010000000000000010000000010000000000000000100000100100001000000000000001000000000000000100
ethyl nonanoate,186.29448,652.0,0.639,500.15,CCOCCOCC,00000000000001000000000000000000010000100000000000000001000000000000000010000000100000100000000000000000000000000000000000000000
ethyl nonyl sulfide,188.37756,717.91,0.592,520.0,OCCO.O[N+]([O-])=O.O[N+]([O-])=O,00000000001000000000000000000000000000010001000000000000010000000010001000010000100000000100001000000000000000000100000000000000
ethyl octadecyl sulfide,314.61948,832.33,0.795,645.0,CCC(C)OCCO,01000000100001000000000000010000110000110000000000000001000010000000000000000000100000000100001000000000000000000000000000000000
ethyl octanoate,172.2676,637.0,0.579,481.65,CCCCCCOCCO,00000000000001000000000000100000010000110000000000000001000000000000000010000000100000000100001000000000000000000000000100000000
ethyl octyl ether,158.28408,622.0,0.601,459.45,CC(=C)C(O)=O.OCCO,00000100001000000000000000000000010000010000000000000000100000100000000000000000100000100100001000000000000000000000000001000110
ethyl octyl sulfide,174.35068,700.0,0.538,505.54,CCCOCCO,00000000000001000000000000100000010000110000000000000001000000000000000010000000100000000100001000000000000000000000000000000000
ethyl pentadecyl sulfide,272.53884,798.63,0.774,611.0,C1CO1,00000000000100001000000000000010000000000000000000000010000000000000000000000000000000000000000000000000000000000000000000000000
ethyl pentanoate,130.18696,587.95,0.407,419.25,C1CS1,00000000000000000000010000000010000100000000000000000000000000000000000000000001000000000000000000000000000000000000000000000000
ethyl pentyl ether,116.20344,558.21,0.307,390.75,NCCN,00000000000000000001000000000000000000000000000010000000000000000000000000000000100001000000000000000000000000000000000000000000
ethyl pentyl sulfide,132.27004,638.37,0.42,440.0,C1CN1,00000000000000000000000000001010000000000000000001000000000000000000000000000000000000000010000000000000000000000000000000000000
ethyl propanoate,102.1332,546.0,0.394,372.25,CCCCCCCCCCCCCCCCCCCCCNCC,10000000000000000000000000110000010000100000000000000000000000100000000000000000100000000000000000000000000010000000000100000000
ethyl propenyl ether,86.1338,505.58,0.323,343.15,CCCCCCCCCCCCCCCCCNCC,10000000000000000000000000110000010000100000000000000000000000100000000000000000100000000000000000000000000010000000000100000000
ethyl propyl ether,88.14968,500.23,0.346,337.01,CCCCCCCNCC,10000000000000000000000000110000010000100000000000000000000000100000000000000000100000000000000000000000000010000000000100000000
ethyl propyl sulfide,104.21628,584.0,0.329,391.65,CCCCCCCCCCCCCCCCNCC,10000000000000000000000000110000010000100000000000000000000000100000000000000000100000000000000000000000000010000000000100000000
ethyl sec-butyl ether,102.17656,520.72,0.359,354.35,CCCCCCNCC,10000000000000000000000000110000010000100000000000000000000000100000000000000000100000000000000000000000000010000000000100000000
ethyl sulfate,126.13324,857.0,0.494,553.15,CC(OC(C)=O)OC(C)=O,01000000001100000000000000010000010000010000000000000001010000000000010000000000000000000000000000000000000000000000000001000100
ethyl tert-butyl ether,102.17656,514.0,0.296,345.95,CC=C1CC2CC1C=C2,00000000000010000000000000000010010000000000000000000010000101000000000000001000010000000000001000011001001000000000000000010000
ethyl tetradecyl sulfide,258.51196,791.68,0.686,597.0,CCNCC(C)C,11000000000000000000000000010000010000100000000000000001000000100000000000000000100000000000001000000000000010000000000000000000
ethyl trans-2-butenoate,114.1442,569.0,0.434,411.15,CCNC(C)C,11001000000000100000000000010000010000100000000000000000000000100000000000000000100000000000000000000000000000000000000000000000
ethyl trans-2-methyl-2-butenoate,128.17108,592.33,0.432,429.15,CCCCCCCCCCCCCCCCCCCNCC,10000000000000000000000000110000010000100000000000000000000000100000000000000000100000000000000000000000000010000000000100000000
ethyl tridecyl sulfide,244.48508,775.15,0.729,583.0,CCCCCCCCCNCC,10000000000000000000000000110000010000100000000000000000000000100000000000000000100000000000000000000000000010000000000100000000
ethyl undecanoate,214.34824,682.0,0.759,542.21,CCCCCCCCCCC(=O)OCC,00000000001000000001000000101000010000110000000000000001000000000000000000000000100000100000000000000000001000000000000100000100
ethyl undecyl sulfide,216.43132,748.42,0.667,553.0,CCCCCCCCCCCCCCCCCCNCC,10000000000000000000000000110000010000100000000000000000000000100000000000000000100000000000000000000000000010000000000100000000
ethyl vanillin,166.1766,748.0,1.073,567.0,CCCCCCCCNCC,10000000000000000000000000110000010000100000000000000000000000100000000000000000100000000000000000000000000010000000000100000000
ethyl vinyl ether,72.10692,475.15,0.267,308.7,CCCCCCCCCCCCCCCNCC,10000000000000000000000000110000010000100000000000000000000000100000000000000000100000000000000000000000000010000000000100000000
ethyl-3-ethoxypropionate,146.18636,621.0,0.497,441.65,CCCCCNCC,10000000000000000000000000110000010000100000000000000000000000100000000000000000100000000000000000000000000010000000000100000000
ethyl-sec-butylamine,101.19184,538.12,0.432,371.15,CCCNCC,10000000000000000000000000110000010000100000000000000000000000100000000000000000100000000000000000000000000010000000000000000000
ethyl-tert-butylamine,101.19184,517.03,0.369,351.15,CCCCCCCCCCCCCCNCC,10000000000000000000000000110000010000100000000000000000000000100000000000000000100000000000000000000000000010000000000100000000
ethylacetoacetate,130.1436,643.0,0.561,453.95,CCCCCCCCCCCCCCCCCCCCCCCNCC,10000000000000000000000000110000010000100000000000000000000000100000000000000000100000000000000000000000000010000000000100000000
ethylacetylene,54.09164,443.2,0.247,281.22,CCCCCCCCCCCCCNCC,10000000000000000000000000110000010000100000000000000000000000100000000000000000100000000000000000000000000010000000000100000000
ethylamine,45.08432,456.15,0.285,289.73,CCCCCCCCCCCNCC,10000000000000000000000000110000010000100000000000000000000000100000000000000000100000000000000000000000000010000000000100000000
ethylbenzene,106.1674,617.15,0.304,409.35,C#Cc1ccccc1,00000000000000000001000000000000001000000000000000000000000000001000000000000010010000100000010000001010000000000000000000000000
ethylbutylamine,101.19184,548.52,0.463,381.15,c1ccc2c(c1)c3cccc4cccc2c34,00000000000000000000000000000000000000000000000000000000000000011000000000000000010000100000000010001000000000000000000000000000
ethylcyclobutane,84.16128,528.1,0.256,343.75,C1c2ccccc2c3ccccc13,00000000000000000000000000001010000000000000000000000000000000001000000000000000010010100000000010001000000000000000000000000000
ethylcyclohexane,112.21504,609.15,0.246,404.95,[F],00000000000000000000000000000000000000000000000000000000000000000000000000000000000000000000000000000000000000000000000000000001
ethylcyclopentane,98.18816,569.5,0.27,376.62,[O-][F+],00000000000000000000000000000000000000000000000000000000000000000010100000010000000000000000000000000000000000000000000000000000
ethylcyclopropane,70.1344,480.93,0.242,309.08,Fc1ccccc1,00000010100000000000000000000000000000000000000000000000000100001000000000000000010000100000000000001000000000000000000000000000
ethyldecylamine,185.35312,677.7,0.696,514.15,FC(F)F,01000000100000000100000000100000000000000000000000000000000000000000000000000000000000000000000000000000000000000000000000000000
ethyldocosylamine,353.67568,830.33,0.732,678.15,C=O,00000000001000000000000000000000000000000000000000000000000000000000000000001000000000100000000000000000000000000000000000000000
ethyldodecylamine,213.40688,707.4,0.776,549.15,NC=O,00000000001000000001000000000000000000000000000000000010000000000000000000000000000000000010000000000000000010000000000000000001
ethyleicosylamine,325.62192,806.7,0.8,657.15,O=CNc1ccccc1,10001000001000000000000000000000000000000000000000000010000000011000000000000000010000100000000000001000100010000000000000000000
ethylene,28.05376,282.34,0.086,169.47,OC=O,00000000001000000000000000000000000000010000000000000010100000000000000000000000000000000000000000000000000010000000000000010000
ethylene carbonate,88.06296,806.0,0.442,521.35,OC(=O)/C=C/C(O)=O,00000100001000000000000000000001000000010000000000000010000000000000000000000000100000000000000000000000000000000000000000000100
ethylene glycol,62.06844,720.0,0.507,470.45,o1cccc1,00000000000000001001000000000000000000010000000000000000000000001000000000000000010000000000000000000000000000000000000000000000
ethylene glycol diacetate,146.143,653.0,0.56,463.65,O=Cc1occc1,00100000001000001001000000000000000000010000000000000010000000001000000000000000010000100000000000001000000010000000000000000000
ethylene glycol diacrylate,170.165,689.0,0.662,503.0,OCc1occc1,00000000000000101001000000000000000000010000000000000000000000001000010000000000110000100000001000001000000000000000000000000000
ethylene glycol diethyl ether,118.17596,561.0,0.482,394.55,[Cl-].[Cl-].[Cl-].[Ga+3],00000000000000000000000000000100000000000000000000000000000000000000000000100000000000000000000000000000000000000000000000000000
ethylene glycol dinitrate,152.06364,654.0,0.79,472.15,O=C1CCCO1,00001000001000001000000000000010000000000000000000000010011000000000000000100000000000000000000000001000000000000000000000000000
ethylene glycol mono-sec-butyl ether,118.17596,600.0,0.817,481.98,CC(C)C1=CCC(=CC1)C,01000000000000000000000000010010010000000000000001000000001100000000000000000000010000100000000000001000000001000000010000000000
ethylene glycol monohexyl ether,146.22972,633.0,0.9,481.45,[GeH4],00000000000000000000000000000000000000000000000000000000000010000000000000000000000000000000000000000000000000000000000000000000
ethylene glycol monomethacrylate,130.1436,677.0,0.839,499.15,CC(=C)C(=O)OCCO,00000000001001000001000000000000010000010000000000000001100000000000000001000000100000100100001000000000000000000000000001000110
ethylene glycol monopropyl ether,104.14908,615.2,0.486,424.5,Br[GeH2]Br,00000000000001000000000000000010000000000000000000000000000000000000000000000000000000001000000000000000000000000001000000000000
ethylene oxide,44.05316,469.15,0.197,283.6,Cl[GeH2]Cl,00000001000000000001000000000010000000000000000000000000000000000000000000000000000000000000000000000000000000000000000000000000
ethylene sulfide,60.11976,547.0,0.161,328.08,OC(=O)CCCC(O)=O,00000100001000000000000000001000000000010000000000000000000000000000000001000000100000000000000000000000000000000000000100000100
ethylenediamine,60.099,593.0,0.472,390.41,O=C1CCCC(=O)O1,00001000001000001010000000000010000000000000000000000000001000000000000000100000000000000000000000001000000000000000000000000000
ethyleneimine,43.06844,537.0,0.201,329.0,N#CCCCC#N,00000000000000000000001000000100001000000000000000000000000000000100000000000000100000000000000000000000100000000000000100000000
ethylheneicosylamine,339.6488,818.78,0.77,668.15,OCC(O)CO,01000000000000000000000000000000000000010000000000000000000000000000000000000000100000000000001000110000000000000000001000000000
ethylheptadecylamine,283.54128,764.7,0.941,621.15,CCCCCCCC\C=C/CCCCCCCC(=O)OCC(O)CO,01000000001000000101000000101000010000110000000000000011000000000000000000001000100000000000001000110000001000000000001100000100
ethylheptylamine,143.27248,622.2,0.575,453.85,CC([O-])=O.CC([O-])=O.CC(=O)OCC(O)CO,01000000001100000101000000000000010000010000000000000001000000000000000000110000100000000000001000110000000000000000001001000100
ethylhexadecylamine,269.5144,754.8,0.907,608.15,OCC(O)=O,10000100001000000000000000000000000000010000000000000000000000000000000001000000100000000000001000000000000000000000000000000100
ethylhexylamine,129.2456,599.8,0.535,431.15,O=CC=O,00000000001000000000000000000000000000000000000000000010000000000000000000000000000000000000100000000000000010000000000000000000
ethylidene diacetate,146.143,635.0,0.478,442.15,COc1ccccc1O,10000000000000000000000000000000010000010000000000100001000000001010000101000000010000100000000000001000000000000000000000000000
ethylidene norbornene,120.19428,629.0,0.314,420.67,FC(F)(F)C(Cl)Br,01000000100000000011000000000000000000000000010000000000000000100000000000010000000000001000000000000000000000000010000000000000
ethylisobutylamine,101.19184,538.12,0.432,371.15,CCCCCCCCCCCCCCCCCCCCC,00000000000000000000000000100000010000100000000000000000000000000000000000000000100000000000000000000000000000000000000100000000
ethylisopropylamine,87.16496,513.8,0.403,349.15,CCCCCCCCCCCCCCCCCCCCC#N,00000000000000000000001000100100011000100000000000000000000000000100000000000000100000000000000000000000100000000000000100000000
ethylnonadecylamine,311.59504,795.27,0.822,646.15,CCCCCCCCCCCCCCCCCCCCCN,00000000000000000001000000100000010000100000000010000000000000000000000000000000100001000000000000000000000000000000000100000000
ethylnonylamine,171.32624,660.8,0.657,495.15,CCCCCCCCCCCCCCCCCCCCCc1ccccc1,00000000000000000000000000100000010000100000000000000000000000001000000000000000110000100011000000001000000000000000000100000000
ethylnorbene,122.21016,625.0,0.261,416.75,CCCCCCCCCCCCCCCCCCCCCC1CCCC1,00001000000000000000000000100110010000100000010000000000000000001000000000000000100000000000000000000000000000000000000100010000
ethyloctadecylamine,297.56816,773.9,0.981,634.15,CCCCCCCCCCCCCCCCC=O,00000000001000000100000000100000010000100000000000000010000000000000000000000000100000000000000000000000100010000000000100000000
ethyloctylamine,157.29936,642.4,0.616,475.15,CCCCCCCCCCCCCCCCC,00000000000000000000000000100000010000100000000000000000000000000000000000000000100000000000000000000000000000000000000100000000
ethylpentadecylamine,255.48752,744.2,0.891,595.15,CCCCCCCCCCCCCCCCC#N,00000000000000000000001000100100011000100000000000000000000000000100000000000000100000000000000000000000100000000000000100000000
ethylpentylamine,115.21872,575.0,0.496,407.15,CCCCCCCCCCCCCCCCC(O)=O,00000100001000000000000000101000010000110000000000000000000000000000000001000000100000000000000000000000000000000000000100000100
ethylpropylamine,87.16496,520.0,0.393,353.45,CCCCCCCCCCCCCCCCCO,00000000000000000000000000100000010000110000000000000000000000000000000000000000100000000100001000000000000000000000000100000000
ethyltetradecylamine,241.46064,732.8,0.848,580.15,CCCCCCCCCCCCCCCCCN,00000000000000000001000000100000010000100000000010000000000000000000000000000000100001000000000000000000000000000000000100000000
ethyltricosylamine,367.70256,842.59,0.708,688.15,CCCCCCCCCCCCCCCCCc1ccccc1,00000000000000000000000000100000010000100000000000000000000000001000000000000000110000100011000000001000000000000000000100000000
ethyltridecylamine,227.43376,720.6,0.811,565.15,CCCCCCCCCCCCCCCCCC1CCCCC1,00001000000000000000000000100110010000100000010000000000000000001000000000000000100000000000000000000000000000000000000100010000
ethylundecylamine,199.38,693.1,0.738,532.15,CCCCCCCCCCCCCCCCCC1CCCC1,00001000000000000000000000100110010000100000010000000000000000001000000000000000100000000000000000000000000000000000000100010000
ethynylbenzene,102.13564,650.0,0.226,416.0,FC(F)C(F)(F)C(F)(F)F,01000000100000000000000000100000000000000000010000000000010100000000000000000000000000000000000000000000000000010010000000000000
ferric chloride,162.2051,948.15,0.1741,592.15,CCCCCCC,00000000000000000000000000100000010000100000000000000000000000000000000000000000100000000000000000000000000000000000000100000000
fluoranthene,202.2554,905.0,0.588,655.95,CCCCCCC#N,00000000000000000000001000100100011000100000000000000000000000000100000000000000100000000000000000000000100000000000000100000000
fluorene,166.2224,826.0,0.404,570.44,CCCCCCC(O)=O,00000100001000000000000000101000010000110000000000000000000000000000000001000000100000000000000000000000000000000000000100000100
fluorine,37.9968064,144.12,0.053,84.95,CCCCCCCOC(C)=O,00000000001101000001000000100000010000110000000000000001000000000000000000000000100000000000000000000000000000000000000101000100
fluorine oxide,53.9962064,215.0,0.075,128.4,CCCCCCCOC(=O)CCC,00000000001001000001000000101000010000110000000000000001000000000000000000000000100000000000000000000000001000000000000100000100
fluorobenzene,96.1041032,560.09,0.247,357.88,CCCCCCCOC=O,00000000001001000000000000100001010000100000000000000011000000000000000000000000100000000000000000000010000010000000000100000000
fluoroform,70.0141496,299.01,0.264,191.09,CCCCCCCOC(=O)CCCCC,00000000001001000001000000101000010000110000000000000001000000000000000000000000100000000000000000000000001000000000000100000100
formaldehyde,30.02628,408.0,0.282,254.05,CCCCCCCS,00000000000010000000000000100000010000100000000000010000000000000000000000000000100000000000000000000100000000000000000100000000
formamide,45.04096,771.0,0.453,493.0,CCCCCCCCCOC(=O)c1ccccc1C(=O)OCCCCCCC,00000000001001000101000000100000010000110000000000000001000000001000000100000000110000100000000000001000000000000000000100000100
formanilide,121.13872,787.0,0.545,544.15,CCCCCCCOC(=O)CCCC,00000000001001000001000000101000010000110000000000000001000000000000000000000000100000000000000000000000001000000000000100000100
formic acid,46.02568,588.0,0.317,373.71,CCCCCCCOC(=O)CC,00100000001001000001000000100000010000110000000000000001000000000000000000000000100000000000000000000000001000000000000100000100
fumaric acid,116.07336,771.0,0.989,563.15,CCCCCCCN,00000000000000000001000000100000010000100000000010000000000000000000000000000000100001000000000000000000000000000000000100000000
furan,68.07516,490.15,0.202,304.5,CCCCCCCc1ccccc1,00000000000000000000000000100000010000100000000000000000000000001000000000000000110000100011000000001000000000000000000100000000
furfural,96.08556,670.15,0.368,434.85,CCCCCCCC1CCCCC1,00001000000000000000000000100110010000100000010000000000000000001000000000000000100000000000000000000000000000000000000100010000
furfuryl alcohol,98.10144,632.0,0.734,443.15,CCCCCCCC1CCCC1,00001000000000000000000000100110010000100000010000000000000000001000000000000000100000000000000000000000000000000000000100010000
gallium trichloride,176.0811,694.0,0.4577,474.15,CCC=CCC,00000000000000000000000000000000010000100000001000000010000000000000000000001000100000000000000000000000000000000000000000000000
gamma-butyrolactone,86.09044,739.0,0.369,477.15,Clc1c(Cl)c(Cl)c(Cl)c(Cl)c1Cl,00000000000000000001000000000000000000000000000001000000000000000000000000000000000000000000000000001000000000000001000000000000
gamma-terpinene,136.23704,661.0,0.376,456.15,ClC1=C(Cl)C(Cl)(Cl)C(=C1Cl)Cl,00000000000000000001000000001000000010000000100001000000000000000000000000000000000000001000000000001000000000000100000000000000
germane,76.64176,312.2,0.1506,185.0,ClC(Cl)(Cl)C(Cl)(Cl)Cl,00000000000000000001000000000000000100000000000000000000000000001000000000000000000000000000000000000000000000000010000000000000
"germane, trichloro",179.97604,559.78,0.17,348.45,C[Si](C)(C)O[Si](C)(C)O[Si](C)(C)O[Si](C)(C)O[Si](C)(C)O[Si](C)(C)O[Si](C)(C)C,00000000000000001000000000000000010000000000000000000001000000000000000000000000100010000000000000000000000000000000000000100000
germanium bromide,392.226,718.0,0.169,459.5,CCCCCCCCCCCCCCCC=O,00000000001000000100000000100000010000100000000000000010000000000000000000000000100000000000000000000000100010000000000100000000
germanium chloride,214.4208,553.2,0.123,359.7,CCCCCCCCCCCCCCCC,00000000000000000000000000100000010000100000000000000000000000000000000000000000100000000000000000000000000000000000000100000000
glutaric acid,132.11612,807.0,0.959,595.54,CCCCCCCCCCCCCCCC#N,00000000000000000000001000100100011000100000000000000000000000000100000000000000100000000000000000000000100000000000000100000000