name,molweight,critical temperature (K),acentric factor,boiling point (K),SMILES,ECFP_Bits
"2,2,5-trimethylnonane",170.33844,635.7,0.461,464.15,CCC(C)CCCC(C)(C)C,01000000100000000000000000011000010000100000000000000000000000000000000000000000100000010000000000010100000000000010000100000000
"2,2,5-trimethyloctane",156.31156,618.03,0.419,444.15,CC(C)(C)CCCCC(C)(C)C,00000000100000000000000000001000010000000000000000000000000000000000000000000000100000000000000000000100000000000010000100000000
"2,2,6,6-tetramethylheptane",156.31156,614.86,0.361,436.15,CCC(C)CCCCC(C)(C)C,01000000100000000000000000011000010000100000000000000000000000000000000000000000100000010000000000010100000000000010000100000000
"2,2,6,6-tetramethyloctane",170.33844,635.1,0.403,458.15,CC(C)CCCCC(C)(C)C,01000000100000000000000000011000010000000000000000000001000000000000000000000000100000000000000000010100000000000010000100000000
"2,2,6,7-tetramethyloctane",170.33844,639.52,0.432,464.15,CC(C)CCCCCC(C)(C)C,01000000100000000000000000011000010000000000000000000001000000000000000000000000100000000000000000010100000000000010000100000000
"2,2,6-trimethyl-3-ethylheptane",170.33844,638.14,0.432,463.15,CC(C)C(C)(Br)Br,01000000100000000000000000010000010000000000000000000000000000000000000000000000010000011000000000000001000000000010000000000000
"2,2,6-trimethyl-3-heptanol",158.28408,618.25,0.757,463.0,CCC(C)(Br)Br,00000000100000000000000000000000010000110000000000000000000000000000000000000000110000001000000000000000000000000010000010000000
"2,2,6-trimethyl-4-ethylheptane",170.33844,624.36,0.432,453.15,CCCC(C)(Br)Br,00000000100000000000000000101000010000100000000000000000000000000000000000000000110000001000000000000000000000000010000010000000
"2,2,6-trimethyl-4-heptanol",158.28408,607.56,0.757,455.0,CC(C)(Br)Br,00000000100000000000000000000000010000000000000000000000000000000000000000000000010000001000010000000000000000000010000000000000
"2,2,6-trimethyl-5-ethylheptane",170.33844,634.0,0.432,460.15,FC(F)(F)C(Cl)Cl,01000000100000000011001000000000000000000000010000000000000000000000000000000000000000000000000000000000000000000010000000000000
"2,2,6-trimethylheptane",142.28468,593.4,0.396,422.09,CC(C)(C)C(C)(Cl)Cl,00000000100000000001000000000000010100000000000000000000000000000000000000000000000000000000010001000000000000000010000000000000
"2,2,6-trimethylnonane",170.33844,634.33,0.461,463.15,CC(C)C(C)(Cl)Cl,01000000100000000001000000010000011100000000000000000000000000000000000000000000000000000000000000000001000000000010000000000000
"2,2,6-trimethyloctane",156.31156,622.21,0.419,447.15,CCC(C)(Cl)Cl,00000000100000000001000000000000010100110000000000000000000000000000000000000000100000000000000000000000000000001010000000000000
"2,2,7,7-tetramethyloctane",170.33844,635.1,0.403,458.15,CCCCCC(C)(Cl)Cl,00000000100000000001000000101000010100100000000000000000000000000000000000000000100000000000000000000000000000001010000100000000
"2,2,7-trimethylnonane",170.33844,641.18,0.461,468.15,CCCCC(C)(Cl)Cl,00000000100000000001000000101000010100100000000000000000000000000000000000000000100000000000000000000000000000001010000100000000
"2,2,7-trimethyloctane",156.31156,616.64,0.419,443.15,CCCC(C)(Cl)Cl,00000000100000000001000000101000010100100000000000000000000000000000000000000000100000000000000000000000000000001010000000000000
"2,2,8-trimethylnonane",170.33844,641.18,0.461,468.15,CC(C)(Cl)Cl,00000000100000000001000000000000010100000000000000000000000000000000000000000000000000000010000000000000000000000010000000000000
"2,2-dibromo-3-methylbutane",229.9424,666.02,0.382,442.45,CC(C)(C1CCCCC1)C2CCCCC2,00001000100000000000000000000010010000100000010000000000000000000000000010000000000000000000000000000000000000000010000000010000
"2,2-dibromobutane",215.91552,636.75,0.369,417.15,CCC(CC)(CC)CO,00000000000000000000000000000000010000110000000000000000000000000000000000000000100000000000001000000000100000000011000000000000
"2,2-dibromopentane",229.9424,661.45,0.414,443.15,CC(C)C(C)(F)F,01000000100000000000000000010000010000000000010000000000000000000000000000000000000000000000000000000001000000000010000000000000
"2,2-dibromopropane",201.88864,607.05,0.325,388.25,CCC(C)(F)F,00000000100000000000000000100000010000110000010000000000000000000000000000000000100000000000000000000000000000000010000000000000
"2,2-dichloro-1,1,1-trifluoroethane",152.9305496,456.94,0.282,301.05,CCCC(C)(F)F,00000000100000000000000000101000010000100000010000000000000000000000000000000000100000000000000000000000000000000010000000000000
"2,2-dichloro-3,3-dimethylbutane",155.06668,633.09,0.397,444.73,CC(C)(F)F,00000000100000000000000000000000010000000000010000000000000000001000000000000000000000000000000000000000000000000010000000000000
"2,2-dichloro-3-methylbutane",141.0398,633.42,0.262,418.0,CC(C)C(C)(I)I,01001000100000000000010000010000010000000000000000000000000000000000000000000000000000000000000000000001000000000010000000000000
"2,2-dichlorobutane",127.01292,578.17,0.247,376.15,CCC(C)(I)I,00000000100000000000010001000000010000110000000000000000000000000000000000000000100000000000000000000000000000000010000000000000
"2,2-dichloroheptane",169.09356,654.02,0.442,454.15,CCCC(C)(I)I,00000000100000000000010001101000010000100000000000000000000000000000000000000000100000000000000000000000000000000010000000000000
"2,2-dichlorohexane",155.06668,633.09,0.397,444.73,CC(C)(I)I,00000000100000000000010000000000010000000000000000000000000000000000000000001000000000000000000000000000000000000010000000000000
"2,2-dichloropentane",141.0398,601.15,0.291,400.15,CCCC(CC)(CC)C(C)(C)C,00000000100000000000000000101000010000110000000000000000000000000000000000000000100000000000000001000000000000000010000000010000
"2,2-dichloropropane",112.98604,539.46,0.198,342.46,CC(O)C(C)(C)CO,01000000100000000000000000010000010000010000100000000000000000000000000000000000100000000000001001010000000000000011000000000000
"2,2-dicyclohexylpropane",208.38732,766.86,0.471,559.15,CC(C)(CN)CN,00000000100000000001000000000000010000000000000000000000000000000000000000010000100001000000000000000000001000000010000000000000
"2,2-diethyl-1-butanol",130.23032,605.76,0.738,446.0,CC(C)(CO)CCO,00000000100000000000000000001000010000010000000000000000000000000000000000010000100000000100001000000000000000000011000000000000
"2,2-difluoro-3-methylbutane",108.1312064,467.07,0.261,308.67,CCC(C)(C)CO,00000000100000000000000000000000010000110000000000000000000000000000000000010000100000000000001000000000000000000011000000000000
"2,2-difluorobutane",94.1043264,466.65,0.246,304.05,CCCCCC(C)(C)CO,00000000100000000000000000101000010000110000000000000000000000000000000000010000100000000000001000000000000000000011000100000000
"2,2-difluoropentane",108.1312064,499.35,0.29,332.85,CCCCC(C)(C)CO,00000000100000000000000000101000010000110000000000000000000000000000000000010000100000000000001000000000000000000011000100000000
"2,2-difluoropropane",80.0774464,428.96,0.202,272.75,CCCCCCC(C)(C)CO,00000000100000000000000000101000010000110000000000000000000000000000000000010000100000000000001000000000000000000011000100000000
"2,2-diiodo-3-methylbutane",323.94334,759.04,0.242,496.41,CCCC(C)(C)CO,00000000100000000000000000101000010000110000000000000000000000000000000000010000100000000000001000000000000000000011000000000000
"2,2-diiodobutane",309.91646,735.41,0.227,473.97,CC(C)(C)CS,00000000100000000000000000000000010000000000000000110000000000000000000000000000100000000000000000000100000000000010000000000000
"2,2-diiodopentane",323.94334,752.99,0.271,496.85,CC(C)(C)CO,00000000100000000000000000000000010000010000000000000000000000000000000000000000100000000000001000000100000000000011000000000000
"2,2-diiodopropane",295.88958,709.92,0.183,446.15,CCC(CC)(CC)C(C)(C)C,00000000100000000000000000000000010000110000000000000000000000000000000000000000100000000000000001000000000000000010000000010000
"2,2-dimethyl,3,3-diethylhexane",170.33844,655.89,0.403,473.15,CCC(CC)C(CC)C(C)(C)C,01000000100000000000000000000000010000100000000000000000000000000000000000000000101000000000000000000000000001000010000000000000
"2,2-dimethyl-1,3-butanediol",118.17596,630.45,1.105,475.55,CC(=O)C(C)(C)C,00000000101000100000000000000000010000010000000000000000000000100000000000000000000000000000000000000000000000000010000001000100
"2,2-dimethyl-1,3-propanediamine",102.17964,637.67,0.591,426.15,CCC(CC)C(C)(C)CO,01000000100000000000000000000000110000110000100000000000000000000000000000000000100000000000001000000000000000000011000000000000
"2,2-dimethyl-1,4-butanediol",118.17596,636.35,1.105,480.0,CCC(O)(CC)C(C)(C)C,00000000100000000000000000000000010000110000000000000000000000000000000000000000100000000000000001000000000000000010100100000000
"2,2-dimethyl-1-butanol",102.17656,589.0,0.518,409.95,CCCCC(CC)C(C)(C)C,01000000100000000000000000100000110000100000000000000000000000000000000000000000100000000000000000010000000001000010000100000000
"2,2-dimethyl-1-heptanol",144.2572,623.0,0.78,465.15,CCCCCC(CC)C(C)(C)C,01000000100000000000000000100000110000100000000000000000000000000000000000000000100000000000000000010000000001000010000100000000
"2,2-dimethyl-1-hexanol",130.23032,605.29,0.738,445.65,CCC(CC)C(C)(C)C,01000000100000000000000000000000110000100000000000000000000000000000000000000000100000000000000000000000000001000010000000000000
"2,2-dimethyl-1-octanol",158.28408,636.2,0.819,481.15,CCCCC(O)C(C)(C)C,01000000100000000000000000100000010000110000000000000000001000000000000000000000100000000000000000010000000001000010000100000000
"2,2-dimethyl-1-pentanol",116.20344,587.65,0.695,426.15,CCCC(O)C(C)(C)C,01000000100000000000000000100000010000110000000000000000001000000000000000000000100000000000000000010000000001000010000000000000
"2,2-dimethyl-1-propanethiol",104.21628,570.0,0.281,376.83,CCCC(=O)C(C)(C)C,00000000101000100000000000101000010000110000000000000000000000000000000000000000100000000000000100000000000000000010000000000100
"2,2-dimethyl-1-propanol",88.14968,550.0,0.604,386.25,CCCCC(C(C)C)C(C)(C)C,01000000100000000000000000110000010000100000000000000000000000000000000000000000100000000000000000010000000001000010000100000000
"2,2-dimethyl-3,3-diethylpentane",156.31156,651.51,0.361,462.15,CCCC(C(C)C)C(C)(C)C,01000000100000000000000000110000010000100000000000000000000000000000000000000000100000000000000000010000000001000010000000000000
"2,2-dimethyl-3,4-diethylhexane",170.33844,638.14,0.432,463.15,CCCCCC(O)C(C)(C)C,01000000100000000000000000100000010000110000000000000000001000000000000000000000100000000000000000010000000001000010000100000000
"2,2-dimethyl-3-butanone",100.16068,576.61,0.362,394.21,CCCCC#CC(C)(C)C,00000000100000000000000100100100011000100000000000000000000000000000000000000000100000000000000010000000000000000110000100000000
"2,2-dimethyl-3-ethyl-1-pentanol",144.2572,620.7,0.748,461.0,CCC(O)C(C)(C)C,01000000100000000000000000000000010000110000000000000000001000000000000000000000100000000000000000010000000001000010000000000000
"2,2-dimethyl-3-ethyl-3-pentanol",144.2572,608.69,0.682,447.15,CCC(=O)C(C)(C)C,00100000101000100000000000000000010000110000000000000000000000000000000000000000100000000000000100000000000000000010000000000100
"2,2-dimethyl-3-ethylheptane",156.31156,624.99,0.419,449.15,CCCC(C(C)(C)C)C(C)(C)C,01000000100000000000000000100000010000101000000000000000000000000000000000000000100000000000000000010000000001000010000000000000
"2,2-dimethyl-3-ethyloctane",170.33844,642.55,0.461,469.15,CCSC(C)(C)C,00100000100000000000000000000000010001100001000000000000000000000000000000000000100000000000000000000000000000000010100000000000
"2,2-dimethyl-3-ethylpentane",128.2578,590.0,0.335,406.99,CCC(CC)(CC)CC(C)(C)C,00000000100000000000000000000000010000110000000000000000000000000000000000000000100000000000000000000100100000000010001000000000
"2,2-dimethyl-3-heptanol",144.2572,607.23,0.748,451.0,CCC(CC)C(O)C(C)(C)C,01000000100000000000000000000000010000110000000000000000000000000000000000000000101000000000000000010000000001000010000000000000
"2,2-dimethyl-3-hexanol",130.23032,586.35,0.706,429.25,CCCC(CC)CC(C)(C)C,01000000100010000000000000100000010000100000000000000000010000000000000000000000100000000000000000010100000000000010000000000000
"2,2-dimethyl-3-hexanone",128.21444,624.0,0.528,419.15,CCCCC(CC)CC(C)(C)C,01000000100010000000000000100000010000100000000000000000010000000000000000000000100000000000000000010100000000000010000100000000
"2,2-dimethyl-3-isopropylheptane",170.33844,638.14,0.432,463.15,CCCC(O)CC(C)(C)C,01000000100000000000000000100000010000110000000000000000010000000000000000000000100000000000000000010100000000000010001000000000
"2,2-dimethyl-3-isopropylhexane",156.31156,623.44,0.391,445.15,CCCC(CC(C)(C)C)C(C)C,01000000100000000000000000110000010000100000000000000000010000000000000000000000101000000000000000010100000001000010000000000000
"2,2-dimethyl-3-octanol",158.28408,620.48,0.788,467.0,CCCCC(O)CC(C)(C)C,01000000100000000000000000100000010000110000000000000000010000000000000000000000100000000000000000010100000000000010001100000000
"2,2-dimethyl-3-octyne",138.25292,642.22,0.417,443.65,CCCC(CCC)CC(C)(C)C,01000000100010000000000000100000010000100000000000000000010000000000000000000000100000000000000000010100000000000010000000000000
"2,2-dimethyl-3-pentanol",116.20344,567.71,0.662,409.15,CCC(CC)CCC(C)(C)C,01000000100010000000000000001000010000100000000000000000000000000000000000000000100000000000000000010100000000000010000000000000
"2,2-dimethyl-3-pentanone",114.18756,580.9,0.387,398.15,CCCC(CC)CCC(C)(C)C,01000000100010000000000000101000010000100000000000000000000000000000000000000000100000000000000000010100000000000010000000000000
"2,2-dimethyl-3-tert-butylhexane",170.33844,654.48,0.375,469.15,CCC(CC)CCCC(C)(C)C,01000000100010000000000000001000010000100000000000000000000000000000000000000000100000000000000000010100000000000010000100000000
"2,2-dimethyl-3-thiapentane",118.24316,588.0,0.286,393.56,CC\C=C/C(C)(C)C,00000000100000000000000000000000010000100000001000000010000000000000000000001000100000000000000000000010000001000010000000000000
"2,2-dimethyl-4,4-diethylhexane",170.33844,655.89,0.403,473.15,CC/C=C/C(C)(C)C,00000000100000000000000000000000010000100000001000000010000000000000000000001000100000000000000000000010000001000010000000000000
"2,2-dimethyl-4-ethyl-3-hexanol",158.28408,614.44,0.757,460.15,CCC(C)(C)C=O,01000000101000000000000000000000010000110000000000000010000000000000000000000000100000000000000000000000000010000010100000000000
"2,2-dimethyl-4-ethylheptane",156.31156,613.86,0.419,441.15,CCC(C)(C)C,00000000100000000000000000000000010000110000000000000000000000000000000000000000100000000000000000000100000000000010000000000000
"2,2-dimethyl-4-ethyloctane",170.33844,630.23,0.461,460.15,CCC(C)(C)C#N,00000000100000000000001000000000011000110000000000000000000000000000000000000000100000100000000000000000100000000010000000000010
"2,2-dimethyl-4-heptanol",144.2572,602.05,0.748,447.15,CCC(C)(C)C(O)=O,00000100101000000000000000000000010000110000000000000000010000000000000000000000100000010000000000000000000000000010000000000100
"2,2-dimethyl-4-isopropylheptane",170.33844,627.12,0.432,455.15,CCCCCCCCC(C)(C)C,00000000100000000000000000101000010000100000000000000000000000000000000000000000100000000000000000000100000000000010000100000000
"2,2-dimethyl-4-octanol",158.28408,615.36,0.788,463.15,CCCCCCCCCCC(C)(C)C,00000000100000000000000000101000010000100000000000000000000000000000000000000000100000000000000000000100000000000010000100000000
"2,2-dimethyl-4-propylheptane",170.33844,626.12,0.461,457.15,CCCCCCCCCCCCCCCC(C)(C)C,00000000100000000000000000101000010000100000000000000000000000000000000000000000100000000000000000000100000000000010000100000000
"2,2-dimethyl-5-ethylheptane",156.31156,619.43,0.419,445.15,CCCCCC(C)(C)C,00000000100000000000000000101000010000100000000000000000000000000000000000000000100000000000000000000100000000000010000100000000
"2,2-dimethyl-5-ethyloctane",170.33844,632.97,0.461,462.15,CCCCCCCCCCCCCCC(C)(C)C,00000000100000000000000000101000010000100000000000000000000000000000000000000000100000000000000000000100000000000010000100000000
"2,2-dimethyl-6-ethyloctane",170.33844,638.44,0.461,466.15,CCCCC(C)(C)C,00000000100000000000000000101000010000100000000000000000000000000000000000000000100000000000000000000100000000000010000100000000
"2,2-dimethyl-cis-3-hexene",112.21504,559.69,0.287,378.58,CCCCCCCC(C)(C)C,00000000100000000000000000101000010000100000000000000000000000000000000000000000100000000000000000000100000000000010000100000000
"2,2-dimethyl-trans-3-hexene",112.21504,552.92,0.287,374.0,CCCCCCCCCCCCCCCCC(C)(C)C,00000000100000000000000000101000010000100000000000000000000000000000000000000000100000000000000000000100000000000010000100000000
"2,2-dimethylbutanal",100.16068,558.82,0.37,377.15,CCCCCCC(C)(C)C,00000000100000000000000000101000010000100000000000000000000000000000000000000000100000000000000000000100000000000010000100000000
"2,2-dimethylbutane",86.17716,489.0,0.234,322.88,CCCCCCC(C)(C)C(O)=O,00000100101000000000000000101000010000110000000000000000010000000000000000000000100000010000000000000000000000000010000100000100
"2,2-dimethylbutanenitrile",97.16008,588.3,0.379,402.15,CC1(C)CO1,00000000000000001000000000000010010010000000000000000000000000000000000010000000000000000000010000000000000000000000000001100000
"2,2-dimethylbutanoic acid",116.16008,653.0,0.567,460.15,CCCCCCCCCCCCCC(C)(C)C,00000000100000000000000000101000010000100000000000000000000000000000000000000000100000000000000000000100000000000010000100000000
"2,2-dimethyldecane",170.33844,645.65,0.489,474.15,CCCC(C)(C)C,00000000100000000000000000101000010000100000000000000000000000000000000000000000100000000000000000000100000000000010000000000000
"2,2-dimethyldodecane",198.3922,679.98,0.566,513.15,CC(C)(C)C=O,01000000101000000000000000000000010000000000000000000010000000000000000000000000000000000000000000000010000010000010000000000000
"2,2-dimethylheptadecane",268.5266,746.87,0.701,592.15,CC(C)(C)C#N,00000000100000000000001000000000011000000000000000000000000000000000000000000000000000100000000000000000100000000110000000000000
"2,2-dimethylheptane",128.2578,576.7,0.391,405.84,CC(C)(C)C(O)=O,00000100101000100000000000000000010000010000000000000000010000000000000000000000000000000000000000000000000000000010000000000100
"2,2-dimethylhexadecane",254.49972,734.97,0.683,578.15,CCCC(=O)OCC(C)(C)C,00000000101000000001000000101000010000110000000000000001000000000000000000000000100000000000000000000101001000000010000000000100
"2,2-dimethylhexane",114.23092,549.8,0.338,379.99,CC(C)(C)COC=O,00000000101000000000000000000001010000000000000000000011000000000000000000000000100000000000000000000111000010000010000000000000
"2,2-dimethylnonane",156.31156,626.62,0.448,453.15,CCC(=O)OCC(C)(C)C,00100000101000000001000000000000010000110000000000000001000000000000000000000000100000000000000000000101001000000010000000000100
"2,2-dimethyloctadecane",282.55348,759.27,0.713,606.15,CC(C)(C)CN,00000000100000000001000000000000010000000000000000000000000000000000000000000000100001000000000000000100001000000010000000000000
"2,2-dimethyloctane",142.28468,602.0,0.429,430.05,CCCCCCCCCCCCC(C)(C)C,00000000100000000000000000101000010000100000000000000000000000000000000000000000100000000000000000000100000000000010000100000000
"2,2-dimethyloctanoic acid",172.2676,713.0,0.877,473.73,CC1(C)CCCO1,00001000001000001000000000000010010010000000000000000010000000000000000000000000000000000000010000000000000000000000000001100000
"2,2-dimethyloxirane",72.10692,521.0,0.171,324.65,CC1(C)CCCCS1,00001000001000000000010000000010010110000000000000000000000000000000000000000000000000000000010000000000000000000000000010100000
"2,2-dimethylpentadecane",240.47284,722.25,0.66,563.15,CC1(C)CCCS1,00001000001000000000010000000010010110000000000000000000000000000000000000000000000000000000010000000000000000000000000010100000