name,molweight,critical temperature (K),acentric factor,boiling point (K),SMILES,ECFP_Bits
1-chlorotridecane,218.81008,724.59,0.661,553.15,CCCCCCCCCCCCO,00000000000000000000000000100000010000110000000000000000000000000000000000000000100000000100001000000000000000000000000100000000
1-chloroundecane,190.75632,696.43,0.588,518.49,CCCCCCCCCCC=C,00000000000000000100000000100000010000100000100000000010000000000000000000000000100000100000000000000000000001000000000100000000
1-decanol,158.28408,687.3,0.622,504.07,CCCCCCCCCCCCC1=CCCC1,00001000000000000000000000100010010000100000000000000000000000000000000000100000110000000001000000001000000000000000010100010000
1-decene,140.2688,617.0,0.475,443.75,CCCCCCCCCCCCc1cccc2ccccc12,00000000000000000000000000100000010000100000000000000000000000011000010000000100110000100001000000001000000000000000000100000000
"1-decyl-[1,2,3,4-tetrahydronaphthalene]",272.47408,814.16,0.73,634.15,CCCCCCCCCCC#C,00000000000000000001000000100100011000100000000000000000000000000000000000000010100000000000000000000000000000000000000100000000
1-decylcyclopentene,208.38732,718.6,0.611,542.15,CCCCCCCCCCCCCCCCCCCCS,00000000000010000000000000100000010000100000000000010000000000000000000000000000100000000000000000000100000000000000000100000000
1-decylnaphthalene,268.44232,859.0,0.642,652.0,CCCCCCCCCCCCCCCCCCCCO,00000000000000000000000000100000010000110000000000000000000000000000000000000000100000000100001000000000000000000000000100000000
1-decyne,138.25292,619.85,0.518,447.16,CCCCCCCCCCCCCCCCCCC=C,00000000000000000100000000100000010000100000100000000010000000000000000000000000100000100000000000000000000001000000000100000000
1-dimethylamino-2-propylamine,102.17964,637.67,0.591,385.65,CCCCCCCCCCCCCCCCCCC#C,00000000000000000001000000100100011000100000000000000000000000000000000000000010100000000000000000000000000000000000000100000000
1-docosene,308.59136,790.73,0.756,640.15,Cc1ccc(C=C)c(C)c1,00000000000000000000000000000001010000000000000000000010001000000100000000000000010000100000000000011000000101010000000000000000
1-docosyne,306.57548,793.12,0.765,639.15,Cc1cc(C)cc(C=C)c1,00000000000000000000000000000001010000000000000000000010001000000000000000000000010000100000000000011000000101000100000000000000
1-dodecanethiol,202.40444,724.0,0.666,547.75,CCOCC(C)O,01000000000000000100000000010000010000110000000000000001000000000000000010000000100000100000000000010000000000000000001000000000
1-dodecanol,186.33784,719.4,0.666,536.95,CCCCCCCCCCCCO,00000000000000000000000000100000010000110000000000000000000000000000000000000000100000000100001000000000000000000000000100000000
1-dodecene,168.32256,657.6,0.571,486.5,CCCCCCCCCCC=C,00000000000000000100000000100000010000100000100000000010000000000000000000000000100000100000000000000000000001000000000100000000
1-dodecylcyclopentene,236.44108,739.92,0.678,571.15,CCc1cc(C)cc(C)c1C,00000001000000000000000000000001010000100000000000000000001000000000010000000000110000000000000000001000000100010000000000001000
1-dodecylnaphthalene,296.49608,854.65,0.807,676.15,CCc1ccccc1C(C)C,01000001000000000000000000010000010000100000000000000000000000001000010000000000110000100000000000001000000001000000000000000000
1-dodecyne,166.30668,668.16,0.512,488.16,CCC1CCCCC1C,00001000000000000000000000000110010000100000011000000000000000000001000000000000100000000000000000100000000000000000000000010000
1-eicosanethiol,314.61948,814.57,0.809,656.16,CCCc1ccccc1CC,00000001000000000000000000100000010000100000000000000000000000001000010000000000110000100001000000001000000000000000000000000000
1-eicosanol,298.55288,809.0,0.918,645.5,CCc1cccc(c1)C(C)C,01000001000000000000000000010000010000100000000000000000000000001000000000000000110001100010000000001000000100000000000000000000
1-eicosene,280.5376,771.0,0.88,615.54,CCCc1cccc(CC)c1,00000001000000000000000000100000010000100000000000000000000000001000000000000000110000100011000000001000000100000000000000000000
1-eicosyne,278.52172,769.79,0.75,613.16,CCc1ccc(cc1)C(C)C,01000001000000000000000000010000010000100000000000000000000000000000000000000000110001100010000000001000000000000000000000000000
"1-ethenyl-2,4-dimethylbenzene",132.20528,693.48,0.375,475.26,CCCc1ccc(CC)cc1,00000001000000000000000000100000010000100000000000000000000000000000000000000000110000100011000000001000000000000000000000000000
"1-ethenyl-3,5-dimethylbenzene",132.20528,679.34,0.375,465.57,CCC1CCCc2ccccc12,00011000000000000000000000000010010000100000011000000000000000001000000000110000110010100000000000001000000000000000000000010000
1-ethoxy-2-propanol,104.14908,582.0,0.783,404.15,CCOCC(C)O,01000000000000000100000000010000010000110000000000000001000000000000000010000000100000100000000000010000000000000000001000000000
"1-ethyl,cis-decahydronaphthalene",166.30668,762.49,0.374,533.15,CCC1=CCCCC1,00001001000000000000000000000010010000100000000000000000000000000000000000100000110000000000000000001000000000000000010000010000
"1-ethyl-1-methyl-2,4-diisopropylcyclohexane, [1R-(1alpha,2beta,4beta)]",210.4032,737.79,0.577,549.62,CCC1=CCCC1,00001001000000000000000000000010010000100000000000000000000000000000000000100000110000000000000000001000000000000000010000010000
"1-ethyl-2,3,5-trimethylbenzene",148.24804,678.03,0.42,486.15,CCc1cccc2ccccc12,00000001000000000000000000000000010000100000000000000000000000011000010000000100110000100000000000001000000000000000000000000000
1-ethyl-2-isopropylbenzene,148.24804,666.0,0.418,466.15,CCC(CC)OC(C)=O,01000000101100000000000000000000010000110000000000000001000000000000010000000000100000000000000000000000000000000000000001000100
1-ethyl-2-methylcyclohexane,126.24192,621.31,0.29,425.5,CCCC(=O)OC(CC)CC,01000000101000000000000000101000010000110000000000000001000000000000010000000000100000000000000000000000001000000000000000000100
1-ethyl-2-propylbenzene,148.24804,676.56,0.442,476.15,CCC(CC)OC=O,01000000101000000000000000000001010000100000000000000011000000000000000000000000101000000000000000000000000010000000000000000100
1-ethyl-3-isopropylbenzene,148.24804,665.63,0.412,465.15,CCC(CC)OC(=O)CC,01100000101000000000000000000000010000110000000000000001000000000000010000000000100000000000000000000000001000000000000000000100
1-ethyl-3-propylbenzene,148.24804,673.72,0.442,474.15,CCC(C)(C)CF,00000000100000000000000000000000010000110000000000000000000100000000000000010000100000010000000000000000000000000010000000000000
1-ethyl-4-isopropylbenzene,148.24804,672.21,0.412,469.75,CC(C)C(C)CF,01000000100000000000000000010000010000000000000000000000000000000000000000000000100000010000000000000000000001000000000001000000
1-ethyl-4-propylbenzene,148.24804,679.41,0.442,478.15,CCC(CC)CF,01000000100010000000000000000000010000100000000000000000000000000000000000000000100000010000000000000000000000000000000000000000
"1-ethyl-[1,2,3,4-tetrahydronaphthalene]",160.25904,735.44,0.424,512.72,CC(C)=CF,00000000100000000000000000000000010000010000000000000010010000000000000000000000000000000000000000000000010000000100000001000000
1-ethylcyclohexene,110.19916,617.68,0.285,410.14,CCC1=CCCCC1,00001001000000000000000000000010010000100000000000000000000000000000000000100000110000000000000000001000000000000000010000010000
1-ethylcyclopentene,96.17228,578.4,0.27,379.48,CCCC(C)CF,01000000100000000000000000110000010000100000000000000000000000000000000000000000100000010000000000010000000000000000000000000000
1-ethylnaphthalene,156.22728,776.0,0.407,531.48,CC(C)CF,01000000100000000000000000010000010000000000000000000001000000000000000000000000100000010000000000000000000000000000000000000000
1-ethylpropyl acetate,130.18696,577.0,0.464,405.15,CC(C)(C)CCF,00000000100000000000000000001000010000000000000000000000000000000000000000000000100001010000000000000100000000000010000000000000
1-ethylpropyl butanoate,158.24072,610.0,0.86,463.1,CC(C)=CCF,00000000100000000000000000000000010000010000000000000010000000000000000000000000100000010000000100000000010000000000000001000001
1-ethylpropyl formate,116.16008,579.0,0.375,393.76,CCC(C)CCF,01000000100000000000000000010000010000100000000000000000000000000000000000000000100001010000000000010000000000000000000000000000
1-ethylpropyl propanoate,144.21384,597.0,0.704,440.22,CC(C)CCCF,01000000100000000000000000010000010000000000000000000001000000000000000000000000100001010000000000010000000000000000000100000000
"1-fluoro-2,2-dimethylbutane",104.1676232,514.83,0.342,350.0,CC\C=C/CF,00000000100000000000000000000000010000100000001000000010000000000000000000001000100000010000000000000000000000000000000000000001
"1-fluoro-2,3-dimethylbutane",104.1676232,529.46,0.282,354.15,CC/C=C/CF,00000000100000000000000000000000010000100000001000000010000000000000000000001000100000010000000000000000000000000000000000000001
1-fluoro-2-ethylbutane,104.1676232,501.01,0.253,332.28,CCCCF,00000000100000000000000000100000010000100000000000000000000000000000000000000000100001010000000000000000000000000000000100000000
1-fluoro-2-methyl-1-propene,74.0979832,475.39,0.227,305.0,CCCCCCCCCCF,00000000100000000000000000100000010000100000000000000000000000000000000000000000100001010000000000000000000000000000000100000000
1-fluoro-2-methyl-cis-2-butene,88.1248632,482.63,0.271,317.11,CCCCCCCCCCCCCCCCCCCCCCF,00000000100000000000000000100000010000100000000000000000000000000000000000000000100001010000000000000000000000000000000100000000
1-fluoro-2-methyl-trans-2-butene,88.1248632,482.63,0.271,317.11,CCCCCCCCCCCCF,00000000100000000000000000100000010000100000000000000000000000000000000000000000100001010000000000000000000000000000000100000000
1-fluoro-2-methylpentane,104.1676232,522.41,0.342,355.15,CCCCCCCCCCCCCCCCCCCCF,00000000100000000000000000100000010000100000000000000000000000000000000000000000100001010000000000000000000000000000000100000000
1-fluoro-2-methylpropane,76.1138632,444.56,0.254,289.15,CCCCCCCCCCCCCCCCCCCCCF,00000000100000000000000000100000010000100000000000000000000000000000000000000000100001010000000000000000000000000000000100000000
"1-fluoro-3,3-dimethylbutane",104.1676232,517.29,0.313,348.85,CCCCCCCCCCCCCCCCCF,00000000100000000000000000100000010000100000000000000000000000000000000000000000100001010000000000000000000000000000000100000000
1-fluoro-3-methyl-2-butene,88.1248632,482.63,0.271,317.11,CCCCCCCF,00000000100000000000000000100000010000100000000000000000000000000000000000000000100001010000000000000000000000000000000100000000
1-fluoro-3-methylpentane,104.1676232,529.76,0.342,360.15,CCCCCCCCCCCCCCCCF,00000000100000000000000000100000010000100000000000000000000000000000000000000000100001010000000000000000000000000000000100000000
1-fluoro-4-methylpentane,104.1676232,525.35,0.342,357.15,CCCCCCF,00000000100000000000000000100000010000100000000000000000000000000000000000000000100001010000000000000000000000000000000100000000
1-fluoro-cis-2-pentene,88.1248632,479.34,0.296,317.23,CCCCCCCCCCCCCCCCCCCF,00000000100000000000000000100000010000100000000000000000000000000000000000000000100001010000000000000000000000000000000100000000
1-fluoro-trans-2-pentene,88.1248632,479.34,0.296,317.23,CCCCCCCCCF,00000000100000000000000000100000010000100000000000000000000000000000000000000000100001010000000000000000000000000000000100000000
1-fluorobutane,76.1138632,460.7,0.309,305.65,CCCCCCCCCCCCCCCCCCF,00000000100000000000000000100000010000100000000000000000000000000000000000000000100001010000000000000000000000000000000100000000
1-fluorodecane,160.2751432,623.1,0.555,459.35,CCCCCCCCF,00000000100000000000000000100000010000100000000000000000000000000000000000000000100001010000000000000000000000000000000100000000
1-fluorodocosane,328.5977032,783.55,0.755,637.15,CCCCCCCCCCCCCCCF,00000000100000000000000000100000010000100000000000000000000000000000000000000000100001010000000000000000000000000000000100000000
1-fluorododecane,188.3289032,658.6,0.625,498.15,CCCF,00000000100000000000000000100000010000100000000000000000000000000000000000000000100001010000000000000000000000000000000000000000
1-fluoroeicosane,300.5439432,756.8,0.782,614.15,CCCCCCCCCCCCCCF,00000000100000000000000000100000010000100000000000000000000000000000000000000000100001010000000000000000000000000000000100000000
1-fluoroheneicosane,314.5708232,772.53,0.771,626.15,CCCCCCCCCCCCCCCCCCCCCCCF,00000000100000000000000000100000010000100000000000000000000000000000000000000000100001010000000000000000000000000000000100000000
1-fluoroheptadecane,258.4633032,726.2,0.742,576.15,CCCCCCCCCCCCCF,00000000100000000000000000100000010000100000000000000000000000000000000000000000100001010000000000000000000000000000000100000000
1-fluoroheptane,118.1945032,555.8,0.436,391.05,CCCCCCCCCCCF,00000000100000000000000000100000010000100000000000000000000000000000000000000000100001010000000000000000000000000000000100000000
1-fluorohexadecane,244.4364232,714.6,0.719,562.15,CCCCCCCCCCCCCCCCCCCC=C,00000000000000000100000000100000010000100000100000000010000000000000000000000000100000100000000000000000000001000000000100000000
1-fluorohexane,104.1676232,528.1,0.391,364.65,CCCCCCCCCCCCCCCCCCCC#C,00000000000000000001000000100100011000100000000000000000000000000000000000000010100000000000000000000000000000000000000100000000
1-fluorononadecane,286.5170632,747.3,0.773,602.15,CCCCCCCCCCCCCCCCCS,00000000000010000000000000100000010000100000000000010000000000000000000000000000100000000000000000000100000000000000000100000000
1-fluorononane,146.2482632,602.9,0.518,438.15,CCCCCCCCCCCCCCCCCO,00000000000000000000000000100000010000110000000000000000000000000000000000000000100000000100001000000000000000000000000100000000
1-fluorooctadecane,272.4901832,737.1,0.753,589.15,CCCCCCCCCCCCCCCC=C,00000000000000000100000000100000010000100000100000000010000000000000000000000000100000100000000000000000000001000000000100000000
1-fluorooctane,132.2213832,580.5,0.479,415.45,CCCCCCCCCCCCCCCC#C,00000000000000000001000000100100011000100000000000000000000000000000000000000010100000000000000000000000000000000000000100000000
1-fluoropentadecane,230.4095432,702.1,0.698,547.15,CCCCCCC=O,00000000001000000100000000100000010000100000000000000010000000000000000000000000100000000000000000000000100010000000000100000000
1-fluoropropane,62.0869832,422.0,0.227,269.95,CCCCCCCO,00000000000000000000000000100000010000110000000000000000000000000000000000000000100000000100001000000000000000000000000100000000
1-fluorotetradecane,216.3826632,688.7,0.667,531.15,CCCCCC=C,00000000000000000100000000100000010000100000100000000010000000000000000000000000100000100000000000000000000001000000000100000000
1-fluorotricosane,342.6245832,795.19,0.731,648.15,CCCCCCCC1CCCc2ccccc12,00011000000000000000000000100010010000100000010000000000000000001000000000110000110010100000000000001000000000000000000100010000
1-fluorotridecane,202.3557832,674.2,0.646,515.15,CCCCCCCC1=CCCC1,00001000000000000000000000100010010000100000000000000000000000000000000000100000110000000001000000001000000000000000010100010000
1-fluoroundecane,174.3020232,641.6,0.588,479.15,CCCCCCCc1cccc2ccccc12,00000000000000000000000000100000010000100000000000000000000000011000010000000100110000100001000000001000000000000000000100000000
1-heneicosene,294.56448,779.35,0.762,628.15,CCCCCC#C,00000000000000000001000000100100011000100000000000000000000000000000000000000010100000000000000000000000000000000000000100000000
1-heneicosyne,292.5486,782.42,0.764,627.15,CCCCCCCCCCCCCCCCS,00000000000010000000000000100000010000100000000000010000000000000000000000000000100000000000000000000100000000000000000100000000
1-heptadecanethiol,272.53884,786.01,0.783,621.16,CCCCCCCCCCCCCCCCO,00000000000000000000000000100000010000110000000000000000000000000000000000000000100000000100001000000000000000000000000100000000
1-heptadecanol,256.47224,780.0,0.849,610.5,CCCCCCCCCCCCCCC=C,00000000000000000100000000100000010000100000100000000010000000000000000000000000100000100000000000000000000001000000000100000000
1-heptadecene,238.45696,736.0,0.753,573.48,CCCCCCCCCCCCCCCCC1=CCCC1,00001000000000000000000000100010010000100000000000000000000000000000000000100000110000000001000000001000000000000000010100010000
1-heptadecyne,236.44108,736.21,0.69,572.16,CCCCCCCCCCCCCCC#C,00000000000000000001000000100100011000100000000000000000000000000000000000000010100000000000000000000000000000000000000100000000
1-heptanal,114.18756,616.8,0.428,425.95,CCCCCCO,00000000000000000000000000100000010000110000000000000000000000000000000000000000100000000100001000000000000000000000000100000000
1-heptanol,116.20344,632.6,0.567,449.45,CCCCC=C,00000000000000000100000000100000010000100000100000000010000000000000000000000000100000100000000000000000000001000000000100000000
1-heptene,98.18816,537.3,0.344,366.79,CCCCCCC1CCCc2ccccc12,00011000000000000000000000100010010000100000010000000000000000001000000000110000110010100000000000001000000000000000000100010000
"1-heptyl-[1,2,3,4-tetrahydronaphthalene]",230.39344,788.41,0.633,594.15,CCCCCCC1=CCCC1,00001000000000000000000000100010010000100000000000000000000000000000000000100000110000000001000000001000000000000000010100010000
1-heptylcyclopentene,166.30668,680.78,0.49,492.15,CCCCCCc1cccc2ccccc12,00000000000000000000000000100000010000100000000000000000000000011000010000000100110000100001000000001000000000000000000100000000
1-heptylnaphthalene,226.36168,811.44,0.662,610.15,CCCCC#C,00000000000000000001000000100100011000100000000000000000000000000000000000000010100000000000000000000000000000000000000100000000
1-heptyne,96.17228,559.0,0.273,372.93,CC(=O)CO,10000000001000100000000000000000010000010000000000000000000000000000000000000000100000000000001000000000000000000000000001000100
1-hexadecanethiol,258.51196,774.68,0.763,607.16,CCC(C)(C)CI,00000000100000000000011000000000010000110000000000000000000000000000000000010000100000010000000000000000000000000010000000000000
1-hexadecanol,242.44536,770.0,0.816,597.23,CC(C)C(C)CI,01000100000000000000010000010000010000000000000000000000000000000000000000000000100000010000000000000000000001000000000001000000
1-hexadecene,224.43008,722.0,0.724,558.02,CCC(CC)CI,01000100100010000000010000000000010000100000000000000000000000000000000000000000100000010000000000000000000000000000000000000000
1-hexadecylcyclopentene,292.5486,775.66,0.76,619.15,CC(C)=CI,00000000000000000000010000000000010000010000000000000010000000000000000000000000000000000000000000000000010000000000000001000110
1-hexadecyne,222.4142,724.26,0.661,557.16,CCCCCCCCCCCCCCC#C,00000000000000000001000000100100011000100000000000000000000000000000000000000010100000000000000000000000000000000000000100000000
1-hexanol,102.17656,610.3,0.576,430.55,CCCCCCO,00000000000000000000000000100000010000110000000000000000000000000000000000000000100000000100001000000000000000000000000100000000
1-hexene,84.16128,504.0,0.286,336.63,CCCC(C)CI,01000100000000000000010000110000010000100000000000000000000000000000000000000000100000010000000000010000000000000000000000000000
"1-hexyl-[ 1,2,3,4-tetrahydronaphthalene]",216.36656,779.0,0.589,578.15,CC(C)CI,01000100000000000000010000010000010000000000000000000001000000000000000000000000100000010000000000000000000000000000000000000000
1-hexylcyclopentene,152.2798,665.48,0.447,473.15,CC(C)(C)CCI,00000000100000000000010000001000010000000000000000000000000000001000000000000000100000010000000000000100000000000010000000000000
1-hexylnaphthalene,212.3348,813.0,0.587,595.15,CC(C)=CCI,00000000000000000000010000000000010000010000000000000010000000000000000000000000100000010000000100000000011000000000000001000000
1-hexyne,82.1454,516.0,0.333,344.48,CCC(C)CCI,01000000100000000000010000010000010000100000000000000000000000001000000000000000100000010000000000010000000000000000000000000000
1-hydroxy-2-propanone,74.07944,596.0,0.774,418.65,CC(C)CCCI,01000000000000000000010000010000010000000000000000000001000000001000000000000000100000010000000000010000000000000000000100000000
"1-iodo-2,2-dimethylbutane",212.07369,594.3,0.739,429.38,C\C=C/CI,00000000000000000000010000000000010000000000000000000010000000000000000000001000100000010000000000000000001000000000000000000000