name,molweight,critical temperature (K),acentric factor,boiling point (K),SMILES,ECFP_Bits
"3,4-dimethyl-trans-2-pentene",98.18816,545.47,0.278,364.65,Cc1cnc2ccccc2c1C,00000000000000000000000000000000010000000000100000000000001000001000000001000100010000100000000000001000000000010000000000101001
"3,4-dimethyl-trans-3-hexene",112.21504,578.0,0.326,395.15,Cc1ccc(C=C)cc1C,00000000000000000000000000000000010000000000000000000010001000000000000000000000010000100000000000011000000101010100000000000000
"3,4-dimethylaniline",121.18208,695.58,0.433,501.15,CC1COCC1C,00010000000100001000000000000110010000000000000000000000000000000001000000000000000000000000000000000000000000000000000000010000
"3,4-dimethylbiphenyl",182.26516,801.2,0.454,555.15,Cc1cscc1C,00000000000000000000000000000000010100001000000000000000001000000000000000000000010000000000000000001000010000010000000000000000
"3,4-dimethyldecane",170.33844,647.49,0.519,478.15,Cc1ccc(S)cc1C,00000000000000010000000000000000010000000000000000000000001000000000000100000000010000100000000000001100000100010000000000000000
"3,4-dimethylfuran",96.12892,535.1,0.332,351.67,Cc1ccc(c(c1)[N+]([O-])=O)[N+]([O-])=O,00000000001000000000000000000001010000000001000000000000001000000000001000011000010000100000000000001000000100000100000000000000
"3,4-dimethylheptane",128.2578,591.9,0.379,413.76,Cc1ccc(O)cc1C,00000000000000000000000000000000010000010000000000000000001000000010000000000000010000100000000000001000010100010000000000000000
"3,4-dimethylhexane",114.23092,568.8,0.338,390.88,CC(CCO)CC(C)(C)C,01000000100000000000000000010000010000010000000000000000010000000000000000000000100000010100001000010100000000000010000000000000
"3,4-dimethylnonane",156.31156,629.74,0.478,458.15,CCC(C)(C)CC(C)(O)CC,00000000100000000000000000000000010000110000000000000000000000000000000000010000100000000000000000000000000000000011101000000000
"3,4-dimethyloctane",142.28468,614.0,0.417,436.56,CCC(C)(O)CC(C)(C)C,00000000100000000000000000000000010000110000000000000000000000000000000000000000100000000000000000000100000000000011101000000000
"3,4-dimethylpent-2-ene",98.18816,537.61,0.294,360.8,CC(CC=O)CC(C)(C)C,01000100101000000000000000010000010000000000000000000010010000000000000000000000100000010000000000000100100010000010000000000000
"3,4-dimethylpyridine",107.1552,683.8,0.35,452.25,CC(CC(O)=O)CC(C)(C)C,01000100101000000000000000010000010000010000000000000000010000000000000001000000100000010000000000000100000000000010000000000100
"3,4-dimethylquinoline",157.21508,765.83,0.497,564.15,CC(CCOC(C)=O)CC(C)(C)C,01000000101101000001000000010000010000010000000000000001010000000000000000000000100000010000000000010100000000000010000001000100
"3,4-dimethylstyrene",132.20528,679.34,0.375,465.57,CCCCC(C)(C)CC(C)CC,01000000100000000000000000111000010000100000000000000000010000000000000000010000100000010000000000000000000000000010000100000000
"3,4-dimethyltetrahydrofuran",100.16068,581.14,0.282,381.65,CCCC(C)(C)CC(C)CC,01000000100000000000000000111000010000100000000000000000010000000000000000010000100000010000000000000000000000000010000000000000
"3,4-dimethylthiophene",112.19552,640.4,0.298,418.15,CCCC(C)C(C)CC(C)CC,01000000100000000000000000110000010000101000000000000000000000000000000000000000100000010000000000010000000000000000000001000000
"3,4-dimethylthiophenol",138.2334,730.98,0.373,489.45,CCC(C)CC(C)CC(C)CC,01000000100000000000000000010000010000101000000000000000000000000000000000000000100000010000000000000000000000000000000000000000
"3,4-dinitrotoluene",182.13572,842.0,0.709,610.0,CN(C)c1cc(C)cc(C)c1,00000000000100000000000000000001010010000000000000000000001000000000000010000000010000000000000000001000000100000100000000000000
"3,4-xylenol",122.1668,729.95,0.576,500.15,CC(C)(C)c1cc(O)cc(c1)C(C)(C)C,00000000110000000000000000000000010000010000000000000000000100000010000000000000010000000000000000001000010100000010000000000000
"3,5,5-trimethyl-1-hexanol",144.2572,627.63,0.748,466.15,CC(C)c1cc(O)cc(c1)C(C)C,01000000000000000000000000010000010000010000000000000000000000000010000000000000010001100000000000001000010100000000000000000000
"3,5,5-trimethyl-3-heptanol",158.28408,629.12,0.724,468.75,Cc1cc(cc(c1)C(C)(C)C)C(C)(C)C,00000000110000000000000000000001010000000000000000000000001100000000000000000000010000000000000000001000000100000010000000000000
"3,5,5-trimethyl-3-hexanol",144.2572,597.6,0.682,439.0,Cc1cc(Cl)cc(Cl)c1,00000000000000000001000000000001010000000000000001000000001000000000000000000000010000001000000000001000000100000000000000000000
"3,5,5-trimethylhexanal",142.24132,640.0,0.592,456.62,CCC(CC)CC(CC)CC,01000000100010000000000000000000010000101000000000000000000000000000000000000000100000000000000000000000000000000000000000000000
"3,5,5-trimethylhexanoic acid",158.24072,703.0,0.831,456.91,CCCC(CC)CC(CC)CC,01000000100010000000000000100000010000101000000000000000000000000000000000000000100000000000000000010000000000000000000000000000
"3,5,5-trimethylhexyl acetate",186.29448,678.7,0.622,480.0,CCc1cc(O)cc(CC)c1,00000001000000000000000000000000010000110000000000000000000000000010000000000000110000000010000000001000010100000000000000000000
"3,5,5-trimethylnonane",170.33844,635.7,0.461,464.15,CSc1cc(C)cc(C)c1,00000000001000000000000000000001010000000001000000000000001100000000000000000000010000000000000000001000000100000000100000000000
"3,5,5-trimethyloctane",156.31156,616.64,0.419,443.15,CC(C)CC(C)CCO,01000000000000000000000000010000010000011000000000000001000000000000000000000000100000010100001000010000000000000000000000000000
"3,5,6-trimethylnonane",170.33844,640.25,0.491,470.15,CC(C)CC(C)C=C,01000000000000000000000100010000010000001000000000000011100000000000000000000000100000100000000000000000000001000000000000000000
"3,5,7-trimethylnonane",170.33844,637.53,0.491,468.15,CCc1c(C)cc(C)cc1O,00000001000000000000000000000001010000110000000000000000001000000010000100000000110000000000000000001000000100010010000000000000
"3,5,N,N-tetramethylaniline",149.23584,690.0,0.69,500.15,CC(C)CC(C)C(C)O,01000000000000000000000000010100010000011000000000000001000000000000000000000000100000000000000000010000000000000000000001000000
"3,5-bis(1,1-dimethylethyl)phenol",206.32808,765.0,0.631,527.81,CCC(C)CC(C)(CC)CC,01000000100001000000000000010000010000110000000000000000010000000000000000000000100000010000000000000000000000000010000000000000
"3,5-bis(1-methylethyl)phenol",178.27432,755.67,0.59,524.28,CCCC(C)CC(C)(CC)CC,01000000100001000000000000110000010000110000000000000000010000000000000000000000100000010000000000010000000000000010000000000000
"3,5-di-tert-butyltoluene",204.35556,741.0,0.638,517.15,CCC(C)CC(C)(O)CC,01000000100000000000000000010000010000110000000000000000010000000000000000000000100000010000000000000000000000000011100000000000
"3,5-dichlorotoluene",161.03004,710.0,0.343,474.65,CCC(C)(O)CC(C)C,01000000100000000000000000010000010000110000000000000001010000000000000000000000100000000000000000000000000000000011100000000000
"3,5-diethylheptane",156.31156,621.49,0.478,452.15,CCC(CC)CC(CC)CC,01000000100010000000000000000000010000101000000000000000000000000000000000000000100000000000000000000000000000000000000000000000
"3,5-diethyloctane",170.33844,636.66,0.519,470.15,CCCC(C)CC(C)(O)CC,01000000100000000000000000110000010000110000000000000000010000000000000000000000100000010000000000010000000000000011100000000000
"3,5-diethylphenol",150.22056,742.72,0.541,521.15,CCC(C)C(CC)C(C)CC,01000000100000000000000000010000010000100000000000000000000000001000000000000000100000000000000000000000000000000000000001000000
"3,5-dimethyl-(1-thiaethyl)-benzene",152.26028,743.84,0.415,510.74,CCCC(C)C(CC)C(C)CC,01000000100000000000000000110000010000100000000000000000000000001000000000000000100000000000000000010000000000000000000001000000
"3,5-dimethyl-1-hexanol",130.23032,616.17,0.773,456.15,CCc1c(C)cc(O)cc1C,00000001000000000000000000000000010000110000000000000000001000000010000000000000110000000000000000001000010100010010000000000000
"3,5-dimethyl-1-hexene",112.21504,551.31,0.327,377.15,CCC(C)C(O)C(C)CC,01000000100000000000000000010000010000110000000000000000000001000000000000000000100000000000000000010000000000000000000001000000
"3,5-dimethyl-2-ethylphenol",150.22056,761.5,0.54,535.0,CCC(C)C(=O)C(C)CC,01000000101000000000000000010000010000110000000000000000000000000000000000010000100000000000000010000000000000000000000000000100
"3,5-dimethyl-2-hexanol",130.23032,588.35,0.741,433.15,CCC(C)C(C(C)C)C(C)CC,01000100100000000000000000010000010000100000000000000000000000000000000000000000100000000000000000000000000001000000000001000000
"3,5-dimethyl-3-ethylheptane",156.31156,630.56,0.419,453.15,CCCC(C(C)CC)C(C)CC,01000000100000000000000000110000010000100000000000000000000000001000000000000000100000000000000000010000000000000000000001000000
"3,5-dimethyl-3-ethyloctane",170.33844,642.55,0.461,469.15,CCCC(C)(CC)CC(C)CC,01000000100001000000000000111000010000110000000000000000010000000000000000000000100000010000000000000000000000000010000000000000
"3,5-dimethyl-3-heptanol",144.2572,605.89,0.748,450.0,CCC(C)CC(C)C(CC)CC,01000000100000000000000000010000010000101000000000000000000000000000000000000000101000010000000000000000000000000000000001000000
"3,5-dimethyl-3-hexanol",130.23032,580.75,0.706,425.15,CCC(C)(CC(C)C)O,01000000100000000000000000010000010000110000000000000001010000000000000000000000100000000000000000000000000000000011100000000000
"3,5-dimethyl-3-octanol",158.28408,619.15,0.788,466.0,Cc1cc(C)cc(N)c1,00000000000000000001000000000001010000000000000001000000001000000000000000000000010000000000000000001000000100000000000010000000
"3,5-dimethyl-4-ethylheptane",156.31156,628.05,0.449,454.15,Cc1cc(C)cc(c1)c2ccccc2,00000000100000000000000000000001010000000000000000000000001000001000000000000000010000100000000000001000000100000000000000000000
"3,5-dimethyl-4-ethyloctane",170.33844,640.25,0.491,470.15,CCCCCC(C)CC(C)CC,01000000100000000000000000110000010000101000000000000000000000000000000000000000100000010000000000010000000000000000000100000000
"3,5-dimethyl-4-ethylphenol",150.22056,757.44,0.54,532.15,CCC(C)CC(C)CC,01000000100000000000000000010000010000101000000000000000000000000000000000000000100000010000000000000000000000000000000000000000
"3,5-dimethyl-4-heptanol",144.2572,616.34,0.782,460.15,CCCCC(C)CC(C)CC,01000000100000000000000000110000010000101000000000000000000000000000000000000000100000010000000000010000000000000000000100000000
"3,5-dimethyl-4-heptanone",142.24132,629.65,0.541,435.15,CCCC(C)CC(C)CC,01000000100000000000000000110000010000101000000000000000000000000000000000000000100000010000000000010000000000000000000000000000
"3,5-dimethyl-4-isopropylheptane",170.33844,639.86,0.462,467.15,Cc1cncc(C)c1,00000000000000000000000000000001010000000000000000000000001000000001000000000000010000000000000000001000000100000000000000100001
"3,5-dimethyl-4-propylheptane",170.33844,638.89,0.491,469.15,Cc1cc(C)cc(C=C)c1,00000000000000000000000000000001010000000000000000000010001000000000000000000000010000100000000000011000000101000100000000000000
"3,5-dimethyl-5-ethyloctane",170.33844,634.33,0.461,463.15,Cc1cc(C)cc(S)c1,00000000000000010000000000000001010000000000000000000000001000000000000100000000010000000000000000001100000100000000000000000000
"3,5-dimethyl-6-ethyloctane",170.33844,640.25,0.491,470.15,Cc1cc(cc(c1)[N+]([O-])=O)[N+]([O-])=O,00000000001000000000000000000001010000000001000000000000001000000000001000010000010000000000000000001000000100000100000000100000
"3,5-dimethyl-cis-2-hexene",112.21504,564.15,0.322,385.15,Cc1cc(C)cc(O)c1,00000000000000000000000000000001010000010000000000000000001000000010000000000000010000000000000000001000010100000000000000000000
"3,5-dimethyl-trans-2-hexene",112.21504,564.15,0.322,385.15,CCCC(C)(C)CCC(C)CC,01000000100000000000000000111000010000100000000000000000000000000000000000010000100000010000000000010000000000000010000000000000
"3,5-dimethylaniline",121.18208,695.58,0.433,493.65,CCC(CC)CCC(CC)CC,01000000100010000000000000000000010000100000000000000000000000000000000000000000100000000000000000010000000000000000000000000000
"3,5-dimethylbiphenyl",182.26516,792.44,0.458,547.65,CCC(C)CCC(C)(CC)CC,01000000100001000000000000011000010000110000000000000000000000000000000000000000100000010000000000010000000000000010000000000000
"3,5-dimethyldecane",170.33844,640.72,0.519,473.15,CCC(C)(O)CCC(C)C,01000000100000000000000000011000010000110000000000000001000000000000000000000000100000000000000000010000000000000011100000000000
"3,5-dimethylheptane",128.2578,583.2,0.385,409.16,CCC(C)CCC(C)(O)CC,01000000100000000000000000011000010000110000000000000000000000000000000000000000100000010000000000010000000000000011100000000000
"3,5-dimethylnonane",156.31156,622.87,0.478,453.15,CCC(C)CC(CC)C(C)CC,01000000100000000000000000010000010000101000000000000000000000000000000000000000101000010000000000000000000000000000000001000000
"3,5-dimethyloctane",142.28468,606.3,0.424,432.56,CCC(C)CC(O)C(C)CC,01000000100000000000000000010000010000111000000000000000000000000000000000000000100000010000000000010000000000000000000011000000
"3,5-dimethylpyridine",107.1552,667.2,0.364,445.05,CCCCC(C)CCC(C)CC,01000000100000000000000000110000010000100000000000000000000000000000000000000000100000010000000000010000000000000000000100000000
"3,5-dimethylstyrene",132.20528,679.34,0.375,465.57,CCCC(C)CCC(C)CC,01000000100000000000000000110000010000100000000000000000000000000000000000000000100000010000000000010000000000000000000000000000
"3,5-dimethylthiophenol",138.2334,730.98,0.373,489.45,CCC(C)CCC(C)CC,01000000100000000000000000010000010000100000000000000000000000000000000000000000100000010000000000010000000000000000000000000000
"3,5-dinitrotoluene",182.13572,814.0,0.702,588.0,Cc1ccc2ncc(C)cc2c1,00000000000000000000000000000001010000000000100000000000001000010000000001000000010000100000000000001000000100000000000000100001
"3,5-xylenol",122.1668,715.65,0.485,494.89,CC(C)CCCC(C)CCCC(C)CCCC(C)CC(O)=O,01000100001000000000000000010000010000010000000000000001000000000000000001000000100000010000000000010000000000000000000100000100
"3,6,6-trimethylnonane",170.33844,634.33,0.461,463.15,CC(C)CCCC(C)CCO,01000000000000000000000000010000010000010000000000000001000000000000000000000000100000010100001000010000000000000000000100000000
"3,6-diethyloctane",170.33844,643.43,0.519,475.15,CCC(CC)CCC(CC)CC,01000000100010000000000000000000010000100000000000000000000000000000000000000000100000000000000000010000000000000000000000000000
"3,6-dimethyl-3-ethyloctane",170.33844,646.66,0.461,472.15,CC(C)CCCC(C)C=C,01000000000000000000000100010000010000000000000000000011100000000000000000000000100000100000000000010000000001000000000100000000
"3,6-dimethyl-3-heptanol",144.2572,605.89,0.748,446.15,CC(C)CCCC(C)C(C)O,01000000000000000000000000010100010000010000000000000001000000000000000000000000100000000000000000010000000000000000000101000000
"3,6-dimethyl-3-octanol",158.28408,618.02,0.788,465.15,CCC(C)(O)CCCC(C)C,01000000100000000000000000011000010000110000000000000001000000000000000000000000100000000000000000010000000000000011100100000000
"3,6-dimethyl-4-octanol",158.28408,613.56,0.822,464.0,CCCC(C)CCCC(C)CC,01000000100000000000000000110000010000100000000000000000000000000000000000000000100000010000000000010000000000000000000100000000
"3,6-dimethyldecane",170.33844,642.08,0.519,474.15,CCC(C)CCCC(C)CC,01000000100000000000000000010000010000100000000000000000000000000000000000000000100000010000000000010000000000000000000100000000
"3,6-dimethylnonane",156.31156,625.61,0.478,455.15,CC(C)CCCC(C)CCOC(C)=O,01000000001101000001000000010000010000010000000000000001000000000000000000000000100000010000000000010000000000000000000101000100
"3,6-dimethyloctane",142.28468,608.3,0.424,433.96,CCCC(=O)OCCC(C)CCCC(C)C,01000000001001000001000000111000010000110000000000000001000000000000000000000000100000010000000000010000001000000000000100000100
"3,6-dimethylquinoline",157.21508,780.41,0.497,543.15,Cc1ccc2cc(C)cnc2c1,00000000000000000000000000000001010000000000100000000000001000010000000001000000010000100000000000001000000100000000000000100001
"3,7,11,15-tetramethylhexadecanoic acid",312.5364,822.0,0.935,706.07,CCC(C)CCCCC(C)CC,01000000100000000000000000010000010000100000000000000000000000000000000000000000100000010000000000010000000000000000000100000000
"3,7-dimethyl-1-octanol",158.28408,638.54,0.852,485.15,Cc1cnc2c(C)cccc2c1,00000000000000000000000000000001010000000000100000000000001010011000000000000000010000100000000000001000000100010000000000100001
"3,7-dimethyl-1-octene",140.2688,616.98,0.457,427.15,CC(C)CCCC(C)C=C,01000000000000000000000100010000010000000000000000000011100000000000000000000000100000100000000000010000000001000000000100000000
"3,7-dimethyl-2-octanol",158.28408,641.33,0.822,485.0,CC(C)CCCC(C)C(C)O,01000000000000000000000000010100010000010000000000000001000000000000000000000000100000000000000000010000000000000000000101000000
"3,7-dimethyl-3-octanol",158.28408,623.33,0.788,469.15,CCC(C)(CCCC(C)C)O,01000000100000000000000000011000010000110000000000000001000000000000000000000000100000000000000000010000000000000011100100000000
"3,7-dimethyldecane",170.33844,643.43,0.519,475.15,CCCC(C)CCCC(C)CC,01000000100000000000000000110000010000100000000000000000000000000000000000000000100000010000000000010000000000000000000100000000
"3,7-dimethylnonane",156.31156,628.36,0.478,457.15,CCC(C)CCCC(C)CC,01000000100000000000000000010000010000100000000000000000000000000000000000000000100000010000000000010000000000000000000100000000
"3,7-dimethyloctanyl acetate",200.32136,693.8,0.533,505.0,CC(C)CCCC(C)CCOC(=O)C,01000000001101000001000000010000010000010000000000000001000000000000000000000000100000010000000000010000000000000000000101000100
"3,7-dimethyloctanyl butyrate",228.37512,720.2,0.62,559.87,CCCC(=O)OCCC(C)CCCC(C)C,01000000001001000001000000111000010000110000000000000001000000000000000000000000100000010000000000010000001000000000000100000100
"3,7-dimethylquinoline",157.21508,781.85,0.497,544.15,CC1=CC2=C(C=C1)C=C(C=N2)C,00000000000000000000000000000001010000000000100000000000001000010000000001000000010000100000000000001000000100000000000000100001
"3,8-dimethyldecane",170.33844,647.49,0.519,478.15,CCC(C)CCCCC(C)CC,01000000100000000000000000010000010000100000000000000000000000000000000000000000100000010000000000010000000000000000000100000000
"3,8-dimethylquinoline",157.21508,767.48,0.497,534.15,CC1=C2C(=CC=C1)C=C(C=N2)C,00000000000000000000000000000001010000000000100000000000001010011000000000000000010000100000000000001000000100010000000000100001
"3,cis-5-dimethylcyclohexene",110.19916,597.92,0.26,397.65,CC(C)OCC=C,01000000000000000000000000010000010100000000100000000011001010000000000000000000100000100000000000000000000001000000000000000000
"3,cis-5-dimethylcyclopentene",96.17228,557.42,0.245,364.55,CCCCC(CC)CCl,01000000100010000001000000100000010000100000000000000000000000000000000000000000100001000000000000010000000000000000010100000000
"3,cis-5-dimethylthiacyclohexane",130.25416,641.36,0.262,422.27,CN(C)CCCO,00000000000110000000000000000001010000010000000000000000000000000000000000000000100000000100001000000000000000000100000100000000
"3,cis-6-dimethylcyclohexene",110.19916,597.92,0.26,398.15,CNCCCN,10000000000000000001001000010000010000000000000010000000000000000000000000010000100001000000000000000000000000000000000100000000
"3,trans-4-dimethylcyclohexene",110.19916,597.92,0.26,395.8,CSCCC=O,00000000001000000100001000000010010000000000000000000010000000000000000000000000100000000000000000000000100010000000100000000000
"3,trans-4-dimethylcyclopentene",96.17228,557.42,0.245,364.55,CC(N)CCO,01000000000000000011000000010000010000010000000000000001000000000000000000000000100000000100001000010000000000000000000000000000
"3,trans-4-dimethylthiacyclohexane",130.25416,641.36,0.262,422.27,NCCCO,00000000000000000001000000000000000000010000000010000000000000000000000000000000100001000100001000000000000000000000000100000000