name,molweight,critical temperature (K),acentric factor,boiling point (K),SMILES,ECFP_Bits
"2,6-dimethyl-6-ethyloctane",170.33844,645.29,0.461,471.15,Cc1cccc(C)c1S,00000000000000010000000000000000010000000000000000000000001000001000000000000000010000100000100000001100000000010000000000000000
"2,6-dimethylaniline",121.18208,695.58,0.433,488.15,CC1=C(C(=CC=C1)C)N,00000000000000000001000000000000010000000000000001000000001000001000000000000000010000100000000000001000000000010000000000000000
"2,6-dimethylbiphenyl",182.26516,768.1,0.475,536.15,Cc1c(cccc1[N+]([O-])=O)[N+]([O-])=O,00000000001000000000000000000000010000000001000000000000001000001000001000011000010000100000000000001000000000000100000000001000
"2,6-dimethyldecane",170.33844,638.02,0.519,471.15,CCCc1cccc(CCC)c1O,00000000000000000000000000100000010000110000000000000000000000001010010000100000110000100001000000001000000000000000000000000000
"2,6-dimethylhept-3-ene",126.24192,593.62,0.411,394.8,Cc1cccc(C)c1O,00000000000000000000000000000000010000010000000000000000001000001010000000100000010000100000000000001000000000010000000000000000
"2,6-dimethylheptane",128.2578,579.0,0.393,408.36,CCC(C)(C)CCCCC(C)C,01000000100000000000000000011000010000110000000000000001000000000000000000010000100000000000000000010000000000000010000100000000
"2,6-dimethylnaphthalene",156.22728,777.0,0.418,535.15,CC(C)CCCCC(C)(C)O,01000000100000000000000000011000010000010000000000000001000000000000000000000000100000010000000000010000000000000010100100000000
"2,6-dimethylnonane",156.31156,621.49,0.478,452.15,CCC(CCCC(C)C)C(C)C,01000000100000000000000000010000010000100000000000000001000000000000000000000000101000000000000000010000000001000000000100000000
"2,6-dimethyloctane",142.28468,606.0,0.439,433.53,CC(C)CCCC(O)C(C)C,01000000000000000000000000010000010000010000000000000001000000000000000000000000100000000000000000010000000001000000000110000000
"2,6-dimethylpyridine",107.1552,623.75,0.345,417.2,CCC(CCC(C)C)CC(C)C,01000000100010000000000000010000010000101000000000000001000000000000000000000000100000000000000000010000000000000000000000000000
"2,6-dimethylquinoline",157.21508,773.81,0.497,538.56,CC(C)CCC(O)CC(C)C,01000000000000000000000000010000010000011000000000000001000000000000000000000000100000000000000000010000000000000000001000000000
"2,6-dimethylstyrene",132.20528,679.34,0.375,465.57,CCCC(C)CCCCC(C)C,01000000000000000000000000110000010000100000000000000001000000000000000000000000100000010000000000010000000000000000000100000000
"2,6-dimethylthiophenol",138.2334,730.98,0.373,489.45,Cc1ccc2ccc(C)cc2c1,00000000000000000000000000000001010000000000000000000000001000010000000000000000010000100000000000001000000100000000000000000000
"2,6-dimethyt-2-octanol",158.28408,644.39,0.788,485.0,CCC(C)CCCCC(C)C,01000000100000000000000000010000010000100000000000000001000000000000000000000000100000010000000000010000000000000000000100000000
"2,6-dinitrotoluene",182.13572,770.0,0.714,558.0,CC(C)CCCCC(C)C,01000000000000000000000000010000010000000000000000000001000000000000000000000000100000000000000000010000000000000000000100000000
"2,6-dipropylphenol",178.27432,755.67,0.59,529.15,Cc1ccc2ccc(C)nc2c1,00000000000000000000000000000001010000000000000000000000001000010001000001000000010000100000000000001000000100000000000000100000
"2,6-xylenol",122.1668,701.25,0.455,474.22,CC(C)CCC(O)CCC(C)C,01000000000000000000000000010000010000010000000000000001000000000000000000000000100000000000000000010000000000000000001000000000
"2,7,7-trimethylnonane",170.33844,643.92,0.461,470.15,CC(C)CC(O)CC(CC(C)C)CC(C)C,01000000000010000000000000010000010000011000000000000001000000000000000000000000100000000000000000010000000000000000001000000000
"2,7-dimethyl-2-octanol",158.28408,644.39,0.788,485.0,CCC(C)CCCCCC(C)C,01000000100000000000000000010000010000100000000000000001000000000000000000000000100000010000000000010000000000000000000100000000
"2,7-dimethyl-3-ethyloctane",170.33844,638.89,0.491,469.15,CC(C)CCCCCC(C)C,01000000000000000000000000010000010000000000000000000001000000000000000000000000100000000000000000010000000000000000000100000000
"2,7-dimethyl-3-octanol",158.28408,617.73,0.822,467.15,Cc1ccc2cccc(C)c2n1,00000000000000000000000000000000010000000000000000000000001010011001000000000000010000100000000000001000000000010000000000100000
"2,7-dimethyl-4-ethyloctane",170.33844,630.72,0.491,463.15,CC(C)CCCCCCC(C)C,01000000000000000000000000010000010000000000000000000001000000000000000000000000100000000000000000010000000000000000000100000000
"2,7-dimethyl-4-octanol",158.28408,613.56,0.822,475.15,CC(C)CCC(CC(C)C)O,01000000000000000000000000010000010000011000000000000001000000000000000000000000100000000000000000010000000000000000001000000000
"2,7-dimethyldecane",170.33844,643.43,0.519,475.15,CCCC(C)CCCCC(C)C,01000000000000000000000000110000010000100000000000000001000000000000000000000000100000010000000000010000000000000000000100000000
"2,7-dimethylnaphthalene",156.22728,778.0,0.42,536.15,CC1=CC2=C(C=C1)C=CC(=C2)C,00000000000000000000000000000001010000000000000000000000001000010000000000000000010000100000000000001000000100000000000000000000
"2,7-dimethylnonane",156.31156,622.87,0.478,453.15,CCC(C)CCCCC(C)C,01000000100000000000000000010000010000100000000000000001000000000000000000000000100000010000000000010000000000000000000100000000
"2,7-dimethyloctane",142.28468,604.0,0.442,433.03,CC(C)CCCCC(C)C,01000000000000000000000000010000010000000000000000000001000000000000000000000000100000000000000000010000000000000000000100000000
"2,7-dimethylquinoline",157.21508,774.45,0.497,537.65,CC1=CC2=C(C=C1)C=CC(=N2)C,00000000000000000000000000000001010000000000000000000000001000010001000001000000010000100000000000001000000100000000000000100000
"2,8-dimethyl-5-nonanol",172.31096,696.85,0.596,506.13,CC(C)CCC(CCC(C)C)O,01000000000000000000000000010000010000010000000000000001000000000000000000000000100000000000000000010000000000000000001000000000
"2,8-dimethyl-6-isobutylnonanol-4",228.41848,732.87,0.871,603.77,CC(C)CC(CC(C)C)CC(CC(C)C)O,01000000000010000000000000010000010000011000000000000001000000000000000000000000100000000000000000010000000000000000001000000000
"2,8-dimethyldecane",170.33844,646.14,0.519,477.15,CCC(C)CCCCCC(C)C,01000000100000000000000000010000010000100000000000000001000000000000000000000000100000010000000000010000000000000000000100000000
"2,8-dimethylnonane",156.31156,626.99,0.478,456.15,CC(C)CCCCCC(C)C,01000000000000000000000000010000010000000000000000000001000000000000000000000000100000000000000000010000000000000000000100000000
"2,8-dimethylquinoline",157.21508,751.67,0.497,523.15,CC1=C2C(=CC=C1)C=CC(=N2)C,00000000000000000000000000000000010000000000000000000000001010011001000000000000010000100000000000001000000000010000000000100000
"2,9-dimethyldecane",170.33844,646.14,0.519,477.15,CC(C)CCCCCCC(C)C,01000000000000000000000000010000010000000000000000000001000000000000000000000000100000000000000000010000000000000000000100000000
"2,cis-4-dimethylthiacyclopentane",116.22728,607.56,0.247,395.12,CCCC(C)c1ccccc1O,01000000000000000000000000110000010000110000000000000000000000001010000100000000110000100000000000011000000001000000001000000000
"2,cis-5-dimethylthiacyclohexane",130.25416,641.36,0.262,422.27,CCOCCOCCO,00000000000001000000000000000000010000110000000000000001000000000000000010000000100000100100001000000000000000000000000000000000
"2,cis-5-dimethylthiacyclopentane",116.22728,639.17,0.247,415.68,CCCCC(CC)COCCO,01000000100011000000000000100000010000110000000000000001000000000000000010000000100000000100001000010000000000000000001100000000
"2,cis-6-dimethylthiacyclohexane",130.25416,641.36,0.262,422.27,COCCOCCO,00000000000001000000000000000000010000010000000000000001000000000000000011000000100000000100001000000000000001000000000000000000
"2,trans-3-dimethylthiacyclohexane",130.25416,641.36,0.262,422.27,CC(C)COCCO,01000000000001000000000000010000010000010000000000000001000000000000000010000000100000000100001000000000000000000000001000000000
"2,trans-3-dimethylthiacyclopentane",116.22728,607.56,0.247,395.12,CCC(C(O)=O)c1ccc(CC(C)C)cc1,01000100101000000000000000010000010100110000000000001001000000000000000000000001110001100010000000001000000000000000000000000100
"2,trans-3-dimethylthiacyclopropane",88.17352,537.89,0.218,340.82,CC(=O)Oc1ccccc1C(O)=O,00000100001100000000000000000000010000010000000000100001000000001100000110000000010000100000000000001000000000000000000001000100
"2,trans-4-dimethylthiacyclohexane",130.25416,641.36,0.262,422.27,CCCCNCCO,10000000000000000000000000110000010000110000000000000000000000000000000000000000100000000100001000000000000010000000000100000000
"2,trans-4-dimethylthiacyclopentane",116.22728,607.56,0.247,395.12,CC(CO)N(C)C,01000000000100000000000000010000010000110000000000000000000000000100000000000000100000000000001000100000000000000100000000000000
"2,trans-5-dimethylthiacyclohexane",130.25416,641.36,0.262,422.27,CCNCCO,10000000000000000000000000010000010000110000000000000000000000100000000000000000100000000100001000000000000010000000000000000000
"2,trans-5-dimethylthiacyclopentane",116.22728,638.36,0.247,415.15,CCSCCO,00000000000000000000000000000010010001110000000000000000010000000000000000000000100000000100001000000000000000000000100000000000
"2,trans-6-dimethylthiacyclohexane",130.25416,641.36,0.262,422.27,CC(C)CNCCO,11000000000000000000000000010000010000010000000000000001000000000000000000000000100000000100001000000000000010000000000000000000
2-(1-methylbutyl)phenol,164.24744,751.0,0.569,515.74,CC(C)NCCO,11001000000000100000000000010000010000010000000000000000000000000000000000000000100000000100001000000000000000000000000000000000
2-(2-ethoxyethoxy)ethanol,134.17536,656.0,0.681,475.05,CC(=O)CC(=O)OCCOC(=O)C(C)=C,10000000001001100001000000000000010000010000000000000001100000000000000001000000100000100000000000000000001000000000000001000110
2-(2-ethylhexyloxy)ethanol,174.28348,646.0,0.983,501.15,CCCNCCO,10000000000000000000000000110000010000110000000000000000000000000000000000000000100000000100001000000000000010000000000000000000
2-(2-methoxyethoxy)ethanol,120.14848,630.0,0.871,466.75,CC(C)(C)NCCO,10000000100000000000000000010000010000010000000000000000000000000000000000000000100000000101001000000000000000000010000000000000
2-(2-methylpropoxy)ethanol,118.17596,600.0,0.817,433.15,CCC(N)CO,01000000100000000011000000000000010000110000000000000000000000000000000000000000101000000000001000100000000000000000000000000000
2-(4-isobutylphenyl)butyric acid,172.2676,713.0,0.877,473.73,COCC(C)N,01000000000000000011000000010000010000000000000000000001000000000000000001000000100000000000000000000000000001000000001000000000
2-(acetyloxy)benzoic acid,180.16012,765.0,0.833,564.0,CC(=O)OC1=CC=CC=C1C(=O)O,00000100001100000000000000000000010000010000000000100001000000001100000110000000010000100000000000001000000000000000000001000100
2-(butylamino)ethanol,117.19124,681.0,0.97,472.15,CC(C)C(C)(C)N,01000000100000000001000000010000010100000000000000000000000000000000000000000000000000000000000000000001000000000010000000000000
2-(dimethylamino)-1-propanol,103.16436,626.41,0.841,423.45,CC(N)(CO)CO,10000000100000000001000000000000010100010000000000000000000000000000000000000000100000000000001000000000000000000011000000000000
2-(ethylamino)ethanol,89.13748,571.82,0.711,442.65,CC(C)(N)CO,00000000100000000001000000000000110100010000000000000000000000000000000000000000100000000000001000000000000000000011000000000000
2-(ethylthio)ethanol,106.1888,641.0,0.731,456.65,CCCC(C)(C)N,00000000100000000001000000101000110100100000000000000000000000000000000000000000100000000000000000000000000000000010000000000000
2-(isobutylamino)ethanol,117.19124,681.0,0.97,472.15,CC(N)C(C)(C)C,01000000100000000011000000010000010000000000000000000000000010000000000000000000000000000000000000000000000001000010000000000000
2-(isopropylamino)ethanol,103.16436,626.41,0.841,446.15,CC(C)C(N)CO,01000000000000000011000000010000010000010000000000000000000000000000000000000000100000000000001000100000000001000000000000000010
2-(methacryloyloxy)ethyl acetoacetate,214.21816,761.0,0.822,575.0,CC(=C)C(=O)OCCOC(=O)CC(=O)C,10000000001001100001000000000000010000010000000000000001100000000000000001000000100000100000000000000000001000000000000001000110
2-(propylamino)ethanol,103.16436,626.41,0.841,455.15,CCC(C)C(C)N,01000000100000000011000000010000010000100000000000000000000000000000000000000000100000000100000000000000000000000000000001000000
2-[tert-butylamino]ethanol,117.19124,681.0,0.97,449.65,CCC(O)C(C)N,01000000100000000011000000010000010000110000000000000000000000000000000000000000100000000100000000010000000000000000000010000000
2-amino-1-methoxypropane,89.13748,548.0,0.423,370.0,CC(C)CC(C)N,01000000000000000011000000010000010000001000000000000001000000000000000000000000100000000000000000000000000000000000000000000000
"2-amino-1-propanol, (±)",75.1106,631.0,0.737,447.65,CC(C)CCCC(C)N,01000000000000000011000000010000010000000000000000000001000000000000000000000000100000000000000000010000000000000000000100000000
"2-amino-2,3-dimethylbutane",101.19184,556.88,0.356,377.65,CCC(N)CO,01000000100000000011000000000000010000110000000000000000000000000000000000000000101000000000001000100000000000000000000000000000
"2-amino-2-methyl-1,3-propanediol",105.13688,715.0,1.046,525.4,CC(O)OCCN,01000000000001000001000000010000010000010000000010000001000010000000000000000000100001000000000000010000000000000000000000000000
2-amino-2-methyl-1-propanol,89.13748,571.82,0.711,438.65,CCCCC(C)N,01000000000000000011000000110000010000100000000000000001000000000000000000000000100000000000000000010000000000000000000100000000
2-amino-2-methylpentane,101.19184,555.56,0.387,377.15,CCCCCCC(C)N,01000000000000000011000000110000010000100000000000000001000000000000000000000000100000000000000000010000000000000000000100000000
"2-amino-3,3-dimethyl butane",101.19184,557.1,0.356,375.15,CC(N)CO,01000000000000000011000000010000010000010000000000000001000000000000000000000000100000000000001000100000000000000000000000000000
2-amino-3-methyl-1-butanol,103.16436,626.41,0.841,435.3,CCC(Br)=C,10100000000000000000000000000000010000110000000000100000000000000000000000000000100000101000000000000000000000000000000000000010
"2-amino-3-methyl-1-butanol, (±)",103.16436,626.41,0.841,435.3,CCCCCCCCC(Br)=C,10000000000000000000000000101000010000110000000000100000000000000000000000000000100000101000000000000000000000000000000100000010
2-amino-3-methylpentane,101.19184,596.83,0.419,408.33,CCCC(Br)=C,10000000000000000000000000101000010000110000000000100000000000000000000000000000100000101000000000000000000000000000000000000010
2-amino-3-pentanol,103.16436,626.41,0.841,444.15,CC(Br)=C,10000000000100000000000000000000010000010000000000000000000000000000000000000000000000101000000000000000000000000000000001000010
"2-amino-4-methyl-1-pentanol, (±)",117.19124,681.0,0.97,472.15,CC(C)C(C)(C)Br,01000000100000000000000000010000010000000000000010000000000000000000000000000000010000001000000000000001000000000010000000000000
2-amino-4-methylpentane,101.19184,557.83,0.419,381.65,CC(C)CC(C)N,01000000000000000011000000010000010000001000000000000001000000000000000000000000100000000000000000000000000000000000000000000000
2-amino-6-methylheptane,129.2456,601.45,0.5,428.15,CCC(C)(C)Br,00000000100000000000000000000000010000110000000000000000000000000000000000000000110000101000000000000000000000000010000000000000
2-aminobutan-1-ol,89.13748,571.82,0.711,450.15,CCCC(C)(C)Br,00000000100000000000000000101000010000100000000000000000000000000000000000000000110000101000000000000000000000000010000000000000
2-aminoethoxyethanol,105.13688,699.0,0.969,514.0,CC(C)(C)Br,00000001100000000000000000000000010000000000000000000000000000000000000000000000010000001000000000000000000000000010000000000000
2-aminohexane,101.19184,584.76,0.451,403.15,CCC=C(C)Br,10000000000000000000000000000000010000110001001000000010000000000000000000000000100000001000000100000000000000000000000001000000
2-aminooctane,129.2456,601.45,0.5,438.15,CC(Br)C(C)(C)C,01000000100000000000000000010000010000000000000000000000000000100000000000000000000010001000000000000000000001000010000000000000
2-aminopropanol,75.1106,631.0,0.737,447.15,CC(C)C(Br)=C,11000000000000000100000000010000010000010000000000000000000000000000010000000000000000101000000000000000000000000000000000000010
2-bromo-1-butene,135.00358,548.16,0.297,354.15,CC(C)=C(C)Br,10000000000000000000000000000000010000010000000000000000000000000000000000000000000000001000000000000000000000000000000011000000
2-bromo-1-decene,219.16486,683.71,0.579,498.15,CC(C)C(C)Br,01000000000000000000000000010000010000000000000010000000000000100000000000000000000000001000000000000000000001000000000000000000
2-bromo-1-pentene,149.03046,576.34,0.341,381.15,CCC(C)C(C)Br,01000000100000000000000000010000010000100000000010000000000000100000000000000000100000001000000000000000000000000000000001000000
2-bromo-1-propene,120.9767,510.32,0.253,321.55,CC(C)CC(C)Br,01000000000000000000000000010000010000001000000000000001000000100000000000000000100000001000000000000000001000000000000000000000
"2-bromo-2,3-dimethylbutane",165.07322,595.92,0.341,406.15,C/C=C(/C)Br,10000000000000000000000000000000010000010001000000000010000000000000000000001000000000001000000000000000000000000000000001000000
2-bromo-2-methylbutane,151.04634,581.23,0.296,381.15,C\C=C(/C)Br,10000000000000000000000000000000010000010001000000000010000000000000000000001000000000001000000000000000000000000000000001000000
2-bromo-2-methylpentane,165.07322,595.92,0.341,415.65,CCCC(C)(C)Br,00000000100000000000000000101000010000100000000000000000000000000000000000000000110000101000000000000000000000000010000000000000
2-bromo-2-methylpropane,137.01946,541.05,0.252,346.4,CCC(C)Br,01000000100000000000000000010000010000100000000000000000000000100000000000000000100000001000000000000000001000000000000000000000
2-bromo-2-pentene,149.03046,586.22,0.334,383.15,CC/C=C(/C)\Br,10000000000000000000000000000000010000110001001000000010000000000000000000000000100000001000000100000000000000000000000001000000
"2-bromo-3,3-dimethylbutane",165.07322,609.3,0.311,405.15,CCCCCCCCC(C)Br,01000000000000000000000000110000010000100000000000000000000000100000000000000000100000001000000000010000001000000000000100000000
2-bromo-3-methyl-1-butene,149.03046,570.77,0.311,374.15,CCCCCCCCCCC(C)Br,01000000000000000000000000110000010000100000000000000000000000100000000000000000100000001000000000010000001000000000000100000000
2-bromo-3-methyl-2-butene,149.03046,598.09,0.305,391.15,CCCCCC(C)Br,01000000000000000000000000110000010000100000000000000000000000100000000000000000100000001000000000010000001000000000000100000000
2-bromo-3-methylbutane,151.04634,587.23,0.328,388.45,CCCCC(C)Br,01000000000000000000000000110000010000100000000000000000000000100000000000000000100000001000000000010000001000000000000100000000
2-bromo-3-methylpentane,165.07322,594.59,0.373,401.96,CCCCCCC(C)Br,01000000000000000000000000110000010000100000000000000000000000100000000000000000100000001000000000010000001000000000000100000000
2-bromo-4-methylpentane,165.07322,597.83,0.373,404.15,CCCC(C)Br,01000000000000000000000000110000010000100000000000000000000000100000000000000000100000001000000000010000001000000000000000000000
2-bromo-cis-2-butene,135.00358,557.88,0.286,358.95,CC(C)Br,01000000000000000000000000010000010000000000000000000000000000100000000000100000000000001000000000000000000000000000000000000000
2-bromo-cis-2-pentene,149.03046,584.62,0.331,385.15,CCC(C)N,01000000100000000011000000010000010000100000000000000001000000000000000000000000100000000000000000000000000000000000000000000000
2-bromo-trans-2-butene,135.00358,571.87,0.286,367.95,CCC(C)S,01000000100000000000000000010000010000100000000000000000000000000000000000000000110000000000000000000100000010000000000000000000
2-bromo-trans-2-pentene,149.03046,584.62,0.331,385.15,CC=CCOC(C)=O,00000000001100000001000000000000010100010000000000000011000000000000000000001000100000000000000000000000000000000000000001000100