name,molweight,critical temperature (K),acentric factor,boiling point (K),SMILES,ECFP_Bits
"1,3-dicyclohexyl-2-methylpropane",222.4142,768.14,0.512,568.35,CCC(F)CCF,01000000100000000000000000100000010000100000000000000000000000000000000000000000100001010000000000010000000000000000000000000001
"1,3-dicyclohexylbutane",222.4142,768.14,0.512,576.34,FCCCF,00000000100000000000000000000000000000000000000000000000000000000000000000000000100001010000000000000000000000000000000100000000
"1,3-dicyclohexylpropane",208.38732,766.86,0.471,564.65,Cc1c(O)cccc1O,00000000000000000000000000000000010000010000000000000000001000001010000100000000010000100000000000001000000000000000000000001000
"1,3-dicyclopentadiene",132.20528,660.0,0.288,443.0,Cc1ccc(O)cc1O,00000000000000000000000000000000010000010000000000000000001000000010000100000000010000100000000000001000010100010000000000000000
"1,3-diethylcyclopentane",126.24192,610.99,0.302,423.15,Cc1cc(O)cc(O)c1,00000000000000000000000000000001010000010000000000000000001000000010000000000000010000000000000000001000010100000000000000000000
"1,3-difluoro-2,2-dimethylpropane",108.1312064,463.73,0.29,309.11,CC(C)(CI)CI,00000000100000000000011000000000010000000000000000000000000000000000000000010000100000010000000000000000000000000010000000000000
"1,3-difluoro-2-(fluoromethyl)-propane",112.0947896,426.87,0.36,288.29,ICC(CI)CI,01000100000010000000010000000000000000000000000000000000000000000000000000000000100000010000000000000000000000000000000000000000
"1,3-difluoro-2-ethylpropane",108.1312064,460.3,0.351,311.9,CCC(CI)CI,01000100100010000000010000000000010000100000000000000000000000000000000000000000100000010000000000000000000000000000000000000000
"1,3-difluoro-2-methylbutane",108.1312064,463.41,0.321,311.46,CC(I)C(C)CI,01000100000000001000010000010000010000000000000000000000000000000000000000000000100100010000000000000000000000000000000001000000
"1,3-difluoro-2-methylpropane",94.1043264,506.9,0.306,336.15,CC(CI)CI,01000100000000000000010000010000010000000000000000000000000000000000000000000000100000010000000000000000000000000000000000000000
"1,3-difluoro-3-methylbutane",108.1312064,463.73,0.29,309.11,CC(C)(I)CCI,00000000100001000000010000001000010000000000000000000000000000001000000000000000100000010000000000000000000000000010000000000000
"1,3-difluorobutane",94.1043264,502.38,0.306,333.15,CC(I)CCI,01000000000000001000010000010000010000000000000000000010000000001000000000000000100000010000000000010000000000000000000000000000
"1,3-difluoropentane",108.1312064,521.18,0.351,353.15,CCC(I)CCI,01000000100000001000010000000000010000100000000000000000000000001000000000000000100000010100000000010000000000000000000000000000
"1,3-difluoropropane",80.0774464,480.87,0.292,314.45,ICCCI,00000000000000000000010000000000000000000000000000000000000000001000000000000000100000010000000000000000000000000000000100000000
"1,3-dihydroxy-2-methylbenzene",124.13932,801.7,0.565,538.15,CC(C)c1c(C)cccc1C,01000000000000000000000000010000010000000000000000000000001000001000000000000000010000100010000000001000000000010000000000000000
"1,3-dihydroxy-4-methylbenzene",124.13932,809.15,0.565,543.15,CCCc1c(C)cccc1C,00000000000000000000000000100000010000100000000000000000001000001000000000000000110000100001000000001000000000010010000000000000
"1,3-dihydroxy-5-methylbenzene",124.13932,834.47,0.565,560.15,CC(C)c1ccc(C)cc1C,01000000000000000000000000010001010000000000000000000000001000000000000000000000010000100000000000001000000101010000000000000000
"1,3-diiodo-2,2-dimethylpropane",323.94334,752.99,0.271,496.85,Cc1ccc(c(C)c1)c2ccccc2,00000000100000000000000000000001010000000000000000000000001000001000000000000000010000100000000010001000000100010000000000000000
"1,3-diiodo-2-(iodomethyl)-propane",435.81299,856.37,0.331,569.9,CCCc1ccc(C)cc1C,00000000000000000000000000100001010000100000000000000000001000000000010000000000110000100001000000001000000100010000000000000000
"1,3-diiodo-2-ethylpropane",323.94334,744.5,0.332,499.64,CCc1cccc2c(C)cc(C)cc12,00000001000000000000000000000001010000100000000000000000001000001000010000000100110000100000000000001000000100010000000000000000
"1,3-diiodo-2-methylbutane",323.94334,750.13,0.302,499.2,CC(C)c1cc(C)cc(C)c1,01000000000000000000000000010001010000000000000000000000001000000000000000000000010001100000000000001000000100000000000000000000
"1,3-diiodo-2-methylpropane",309.91646,726.41,0.287,476.76,Cc1cc(C)cc(c1)c2ccccc2,00000000100000000000000000000001010000000000000000000000001000001000000000000000010000100000000000001000000100000000000000000000
"1,3-diiodo-3-methylbutane",323.94334,752.99,0.271,496.85,CCCc1cc(C)cc(C)c1,00000000000000000000000000100001010000100000000000000000001000000000000000000000110000000011000000001000000100000000000000000000
"1,3-diiodobutane",309.91646,726.41,0.287,476.76,CCc1ccc2c(C)cc(C)cc2c1,00000001000000000000000000000001010000100000000000000000001000010000000000000100110000100010000000001000000100010000000000000000
"1,3-diiodopentane",323.94334,744.5,0.332,499.64,CC12CC3CC(C1)CC(C)(C3)C2,00000000000010000000000000000010010010110000000001000000000000000000000000000000000000000000000000000000000010000000000000110000
"1,3-diiodopropane",295.88958,766.97,0.273,496.15,C(CI)CI,00000000000000000000010000000000000000000000000000000000000000001000000000000000100000010000000000000000000000000000000100000000
"1,3-dimethyl-2-isopropylbenzene",148.24804,674.78,0.411,472.15,CC1CCCC(=C1)C,00001000000000000000001000000110010000000000010000000000011100000000000000100000010000000000000000001000000000000000000000010000
"1,3-dimethyl-2-propylbenzene",148.24804,682.26,0.441,480.75,CC1CCC(C)C1,00000000000010000000000000000110010000000000010000000000000000000000000000000000000000000000000000000000000000000000000000011000
"1,3-dimethyl-4-isopropylbenzene",148.24804,674.93,0.411,472.25,CC1CCC(=C1)C,00000000000000000000001000000110010000000000010000000000011100000000000000100000010000000000000000001000000000000000000000010000
"1,3-dimethyl-4-phenyl benzene",182.26516,783.2,0.444,543.15,Cc1cc(C)c2ccccc2c1,00000000000000000000000000000001010000000000000000000000001000011000000000000100010000100000000000001000000100010000000000000000
"1,3-dimethyl-4-propylbenzene",148.24804,680.84,0.441,479.75,C1COCOC1,00001000000100001000000000000010000000000000000000000010000000000000010000000000000000000000000000000000000000000000000000000000
"1,3-dimethyl-5-ethylnaphthalene",184.28104,811.44,0.536,585.41,CC(C=Cc1ccccc1)c2ccccc2,01000000000000000000000000010000010000000000000000000010000000001001000000000000010001101000000001001000000000000100000000000000
"1,3-dimethyl-5-isopropylbenzene",148.24804,668.35,0.411,467.65,C(C=Cc1ccccc1)c2ccccc2,00000000000000000000000000000000000000000000000000000010000000001001000000001000110000100010000000001000000000010100000000000000
"1,3-dimethyl-5-phenyl benzene",182.26516,785.0,0.476,548.15,CC(Cc1ccccc1)Cc2ccccc2,01000000000000000000000000010000010000000000000000000000000000001000000000000001110000110010000000001000000000000000000000000000
"1,3-dimethyl-5-propylbenzene",148.24804,674.65,0.441,475.39,CCCC1=CC(=CC(=C1)C)C,00000000000000000000000000100001010000100000000000000000001000000000000000000000110000000011000000001000000100000000000000000000
"1,3-dimethyl-6-ethylnaphthalene",184.28104,811.44,0.536,585.41,CCC(CCc1ccccc1)c2ccccc2,01000000100000000000000000000000010000100000000000000000000000001000000000000000110001100011000000011000100000000000000000000000
"1,3-dimethyladamantane",164.2908,708.0,0.293,476.44,C(Cc1ccccc1)Cc2ccccc2,00000000000000000000000000000000000000000000000000000000000000001000000000000000110000100011000000001000000000000000000100000000
"1,3-dimethylcyclohexane, cis and trans",112.21504,597.51,0.236,393.1,N(N=Nc1ccccc1)c2ccccc2,10000000000000000000000000000000000100000000000000000000000000111000000000000000010001100000000000001000001000000001000000000000
"1,3-dimethylcyclohexene",110.19916,604.64,0.26,400.25,CCCCCCCCCCCCCCCCCC(O)CCO,01000000000000000000000000100000010000110000000000000000000000000000000000000000100000000100001000010000000000000000001100000000
"1,3-dimethylcyclopentane",98.18816,556.47,0.271,365.1,CC1CCC(C1)C,00000000000010000000000000000110010000000000010000000000000000000000000000000000000000000000000000000000000000000000000000011000
"1,3-dimethylcyclopentene",96.17228,558.34,0.245,365.15,CCCCCCCCCCCCCCCCC(O)CCO,01000000000000000000000000100000010000110000000000000000000000000000000000000000100000000100001000010000000000000000001100000000
"1,3-dimethylnaphthalene",156.22728,773.76,0.443,538.36,CC1=CC2=CC=CC=C2C(=C1)C,00000000000000000000000000000001010000000000000000000000001000011000000000000100010000100000000000001000000100010000000000000000
"1,3-dioxane",88.10632,590.0,0.289,378.15,NCCCN,00000000000000000001000000000000000000000000000010000000000000000000000000000000100001000000000000000000000000000000000100000000
"1,3-diphenyl-1-butene",208.30304,790.85,0.509,584.15,OCCCO,00000000000000000000000000000000000000010000000000000000000000000000000000000000100000000100001000000000000000000000000100000000
"1,3-diphenyl-1-propene",194.27616,796.49,0.465,575.15,C1COC1,00001000000100001000000000000010000000000000000000000010000000000000000000000000000000000000000000000000000000000000000000000000
"1,3-diphenyl-2-methylpropane",210.31892,778.3,0.452,576.15,Cc1ccc(C)c2c(C)ccc(C)c12,00000000000000000000000000000000010000000000000000000000001000001000000000000000010000100000000000001000000000010000000000000000
"1,3-diphenylbutane, (±)",210.31892,778.3,0.452,566.15,Cc1ccc(C)c2c(C)cccc12,00000000000000000000000000000000010000000000000000000000001000001000000000000100010000100000000000001000000000010000000000000000
"1,3-diphenylpentane",224.3458,786.4,0.587,577.15,Cc1ccc(C)c2cc(C)c(C)cc12,00000000000000000000000000000000010000000000000000000000001000000000000000000100010000100000000000001000000100010000000000000000
"1,3-diphenylpropane",196.29204,797.05,0.523,571.85,Cc1ccc2c(C)ccc(C)c2c1,00000000000000000000000000000001010000000000000000000000001000000000000000000100010000100000000000001000000100010000000000000000
"1,3-diphenyltriazene",197.23956,845.0,0.623,610.0,O=Cc1ccc(C=O)cc1,00000000001000000000000000000000000000010000000000000010000000000000000000000000010000100000000000001000000010000100000000000000
"1,3-eicosanediol",314.55228,863.48,1.006,704.15,NCCCCN,00000000000000000001000000000000000000000000000010000000000000000000000000000000100001000000000000000000000000000000000100000000
"1,3-hexadiene, cis and trans",82.1454,526.51,0.25,346.55,C1C=CCC=C1,00000000000100000000000000000010000000000000000000000000000000000000000000000000010000000000000000000000100000000000000000000000
"1,3-nonadecanediol",300.5254,845.25,1.074,690.15,OC(=O)C1CCC(CC1)C(O)=O,00000100001000000000000100000010000000010000010000000000000000000000000000000010000000000000000000000000000000000000000000010100
"1,3-pentadiene; (cis+trans)",68.11852,492.61,0.153,315.05,C1CC=CCC=CC1,00001000000100000000000000000010000000000000000000000000000000000000000000000000010000000000000000000000100000000000000000010000
"1,3-propanediamine",74.12588,608.0,0.506,410.15,CC(C)(C)c1ccc(cc1)C(C)(C)C,00000000110000000000000000000000010000000000000000000000000100000000000000000000010000100000000000001000000000000010000000000000
"1,3-propanediol",76.09532,724.0,0.74,487.55,CC(CBr)C(C)CBr,01000000000000000000000000010000010000000000000000000000000000000000000000000000100000001001000000000000000000000000000001010000
"1,3-propylene oxide",58.08004,520.0,0.201,321.0,CC(CBr)CCBr,01000000000000000000000000010000010000000000000000000000000000000000000000000000100000011001000000010000000000010000000000010000
"1,4,5,8-tetramethylnaphthalene",184.28104,810.54,0.535,585.41,BrCCCCBr,00000000000000000000000000000000000000000000000000000000000000000000000000000000100000001000000000000000000000010000000100010000
"1,4,5-trimethylnaphthalene",170.25416,786.77,0.492,558.15,CCC(Br)CCCBr,01001000100000000000000000000000010000100000000000000000000000100000000000000000100000001000000000010000000000010000000100010000
"1,4,6,7-tetramethylnaphthalene",184.28104,810.54,0.535,585.41,CCCCC(Br)CCCBr,01001000000000000000000000100000010000100000000000000000000000100000000000000000100000001000000000010000000000010000000100010000
"1,4,6-trimethylnaphthalene",170.25416,776.9,0.492,551.15,CC(Br)CCCBr,01000000000000000000000000010000010000000000000000000000000000100000000000000000100000001000000000010000001000010000000100010000
"1,4-benzenedicarboxaldehyde",134.13444,739.0,0.583,519.65,ClCC=CCCl,00000000000000000001000000000000000000000000001000000010000000000000000000001000100001000000000000000000000000000000000000000000
"1,4-butanediamine",88.15276,612.33,0.533,431.65,CC(CCl)CCCl,01000000000000000001000000010000010000000000000010000000000000000000000000000000100001010000000000010000000000000000010000000000
"1,4-cyclohexadiene",80.12952,569.0,0.205,360.15,ClC\C=C/CCl,00000000000000000001000000000000000000000000001000000010000000000000000000001000100001000000000000000000000000000000000000000000
"1,4-cyclohexanedicarboxylic acid",172.18088,889.0,1.036,669.0,ClC\C=C\CCl,00000000000000000001000000000000000000000000001000000010000000000000000000001000100001000000000000000000000000000000000000000000
"1,4-cyclooctadiene",108.18328,645.0,0.286,418.15,ClCCCCCl,00000000000000000001000000000000000000000000000010000000000000000000000000000000100001000000000000000000000000000000000100000000
"1,4-di-tert-butylbenzene",190.32868,708.0,0.502,510.43,CC(Cl)CCCCl,01000000000000000011000000010000010000000000000010000000000000000000000000000000100001010000000000010000000000000000000100000000
"1,4-dibromo-2,3-dimethylbutane",243.96928,684.21,0.526,486.03,C1CCC(CC1)CCCCC2CCCCC2,00001000000000000000000000000110000000000000010000000000000000001000000000000000100000000000000000000000000000000000000100010000
"1,4-dibromo-2-methylbutane",229.9424,654.58,0.48,445.68,CCc1ccc(CC)c2ccccc12,00000001000000000000000000000000010000100000000000000000000000001000010000000100110000100000000000001000000000000000000000000000
"1,4-dibromobutane",215.91552,699.44,0.467,470.15,CC(CF)CCF,01000000100000000000000000010000010000000000000000000000000000000000000000000000100001010000000000010000000000000000000000000000
"1,4-dibromohexane",243.96928,684.21,0.526,486.03,FCCCCF,00000000100000000000000000000000000000000000000000000000000000000000000000000000100001010000000000000000000000000000000100000000
"1,4-dibromooctane",272.02304,716.02,0.616,524.48,CC(F)CCCF,01000000100000000000000000110000011000000000000000000000000000000000000000000000100001010000000000010000000000000000000100000000
"1,4-dibromopentane",229.9424,694.92,0.48,473.15,Cc1cc(O)ccc1O,00000000000000000000000000000000010000010000000000000000001000000010000100000000010000100000000000001000010100010000000000000000
"1,4-dichloro-2-butene",124.99704,640.0,0.302,430.15,CC(CI)CCI,01000100000000000000010000010000010000000000000000000000000000001000000000000000100000010000000000010000000000000000000000000000
"1,4-dichloro-2-methylbutane",141.0398,617.7,0.352,441.65,ICCCCI,00000000000000000000010000000000000000000000000000000000000000001000000000000000100000010000000000000000000000000000000100000000
"1,4-dichloro-cis-2-butene",124.99704,640.0,0.33,425.65,CC(I)CCCI,01000000000000001000010000010000010000000000000000000010000000001000000000000000100000010000000000010000000000000000000100000000
"1,4-dichloro-trans-2-butene",124.99704,646.0,0.328,429.26,CC(C)c1cc(C)ccc1C,01000000000000000000000000010001010000000000000000000000001000000000000000000000010000100000000000001000000101010000000000000000
"1,4-dichlorobutane",127.01292,641.0,0.326,428.25,Cc1ccc(C)c(c1)c2ccccc2,00000000100000000000000000000001010000000000000000000000001000001000000000000000010000100000000010001000000100010000000000000000
"1,4-dichloropentane",141.0398,643.04,0.352,435.15,CCCc1cc(C)ccc1C,00000000000000000000000000100001010000100000000000000000001000000000010000000000110000100001000000001000000100010000000000000000
"1,4-dicyclohexylbutane",222.4142,768.14,0.512,578.15,CCc1cccc2c(C)ccc(C)c12,00000001000000000000000000000000010000100000000000000000001000001000010000000100110000100000000000001000000000010000000000000000
"1,4-diethylnaphthalene",184.28104,812.35,0.537,585.41,CCc1ccc2c(C)ccc(C)c2c1,00000001000000000000000000000000010000100000000000000000001000000000000000000100110000100010000000001000000100010000000000000000
"1,4-difluoro-2-methylbutane",108.1312064,460.3,0.351,311.9,CC(CCF)CF,01000000100000000000000000010000010000000000000000000000000000000000000000000000100001010000000000010000000000000000000000000000
"1,4-difluorobutane",94.1043264,524.74,0.336,350.95,CC1CCC(=CC1)C,00000000000000000000000000000110010000000000010000000000001100000000000000100000010000100000000000001000000000000000010000011000
"1,4-difluoropentane",108.1312064,530.03,0.351,359.15,CC1CC=C(C)C1,00000000000000000000000000000110010000000000000000000000001100000000000000000000010000100000000000001001000000000000010000011000
"1,4-dihydroxy-2-methylbenzene",124.13932,828.51,0.565,556.15,Cc1ccc(C)c2ccccc12,00000000000000000000000000000000010000000000000000000000001000001000000000000100010000100000000000001000000000010000000000000000
"1,4-diiodo-2-methylbutane",323.94334,744.5,0.332,499.64,C1COCCO1,00000000000100001000000000000010000000000000000000000010000000000000000000000000000000000000000000000000000000000000000000000000
"1,4-diiodobutane",309.91646,720.71,0.317,477.2,C(CCc1ccccc1)Cc2ccccc2,00000000000000000000000000000000000000000000000000000000000000001000000000000000110000100011000000001000000000000000000100000000
"1,4-diiodopentane",323.94334,744.5,0.332,499.64,CCCc1ccc(CCC)cc1,00000000000000000000000000100000010000100000000000000000000000000000000000000000110000100011000000001000000000000000000000000000
"1,4-dimethyl-2-isopropylbenzene",148.24804,670.78,0.411,469.35,CCCCCCCCCCCCCCCCC(O)CCCO,01000000000000000000000000100000010000110000000000000000000000000000000000000000100000000100001000010000000000000000001100000000
"1,4-dimethyl-2-phenyl benzene",182.26516,796.0,0.354,540.15,CC=CCC=C,00000000000000000000000000000000010000000000100000000010000000000000000000001000110000100000000000000000000001000000000000000000
"1,4-dimethyl-2-propylbenzene",148.24804,677.57,0.441,477.45,CCCCCCCCCCCCCCCC(O)CCCO,01000000000000000000000000100000010000110000000000000000000000000000000000000000100000000100001000010000000000000000001100000000
"1,4-dimethyl-5-ethylnaphthalene",184.28104,811.44,0.536,585.41,C=CCC=C,00000000000000000000000000000000000000000000100000000010000000000000000000000000110000100000000000000000000001000000000000000000
"1,4-dimethylcyclohexene",110.19916,606.0,0.26,401.65,CC1=CCCC1(C)C,00000000001000000000000000000010010010000000000000000000111000000000000000000000010000000000000000001000000000000000010000110000
"1,4-dimethylcyclopentene",96.17228,560.17,0.245,366.35,C1CC=CCCC=CCCC=C1,00000000000000000000000000000010000000000000000000000000000000000000000000000000010000000000000000000000100000000000000000010000
"1,4-dimethylnaphthalene",156.22728,776.78,0.443,540.46,C1CC=CCCC=C1,00000000000000000000000000000010000000000000000000000000000000000000000000000000010000000000000000000000100000000000000000010000
"1,4-dioxane",88.10632,587.0,0.28,374.47,CC(CN)CCCN,01000000000000000001000000010000010000000000000010000000000000000000000000000000100001010000000000010000000000000000010100000000
"1,4-diphenylbutane",210.31892,778.3,0.452,590.15,CC(CCBr)CCBr,01000000000000000000000000010000010000000000000000000000000000000000000000000000100000011000000000010000000000010000000000010000
"1,4-dipropylbenzene",162.27492,697.15,0.437,481.77,CCC(Br)CCCCBr,01001000100000000000000000000000010000100000000000000000000000100000000000000000100000001000000000010000000000010000000100010000
"1,4-eicosanediol",314.55228,889.23,1.006,725.15,CC(Br)CCCCBr,01000000000000000000000000010000010000000000000000000000000000100000000000000000100000001000000000010000001000010000000100010000