name,molweight,critical temperature (K),acentric factor,boiling point (K),SMILES,ECFP_Bits
"4-tert-butyl-2,5-dimethylphenol",178.27432,755.67,0.59,537.15,CC[C@]12CCCC[C@H]1CCCC2,00001000001000001000000000000010010010100000010000000000000000000010000100000000100000000000000000000000000000000000000000010000
"4-tert-butyl-2,6-dimethylphenol",178.27432,755.67,0.59,521.15,CC[C@]12CCCC[C@@H]1CCCC2,00001000001000001000000000000010010010100000010000000000000000000010000100000000100000000000000000000000000000000000000000010000
4-tert-butyl-2-methylphenol,164.24744,751.0,0.569,510.15,C[C@]12CCCC[C@H]1CCCC2,00001000001000001000000000000010010010000000010000000000000000000000000000000000000000100000000000000000000000000000000000110000
4-tert-butyl-o-xylene,162.27492,697.15,0.437,478.15,C[C@]12CCCC[C@@H]1CCCC2,00001000001000001000000000000010010010000000010000000000000000000000000000000000000000100000000000000000000000000000000000110000
4-tert-butylaniline,149.23584,690.0,0.69,514.15,CC(C)(C)CCCCO,00000000100000000000000000001000010000010000000000000000000000000000000000000000100000000100001000000100000000000010000100000000
4-tert-butylheptane,156.31156,622.21,0.419,447.15,CC(C)(C)CCC=C,00000000100000000100000000001000010000000000100000000010000000000000000000000000100000100000000000000100000001000010000000000000
4-tert-butyloctane,170.33844,635.7,0.461,464.15,CCC(CO)CCC(C)(C)C,01000000100010000000000000001000010000110000000000000000000000000000000000000000100000000000001000110100000000000010000000000000
4-tert-butylphenol,150.22056,734.0,0.509,512.88,CC(O)CCC(C)(C)C,01000000100000000100000000011000010000010000000000000000000000000000000000000000100000000000000000010100000000000010000000000000
4-tert-butylstyrene,160.25904,709.0,0.422,500.0,CCC(O)(CC)CC(C)(C)C,00000000100000000000000000000000010000110000000000000000000000000000000000000000100000000000000000000100000000000010101000000000
4-undecanone,170.29508,678.01,0.653,507.63,CCC#CC(C)(C)CC,00000000100000000000000100000000011100110000000000000000000000000000000000000000100000000000000010000000000000000010000000000010
4-undecyne,152.2798,660.54,0.46,471.65,CCC(O)CC(C)(C)C,01000000100000000000000000000000010000110000000000000000010000000000000000000000100000000000000000010100000000000010001000000000
4-vinylphenol,120.15092,736.0,0.509,502.0,C\C=C/CC(C)(C)C,00000000100000000000000000000000010000000000000000100010000000000000000000001000100000000000000000000100000000000010000000000000
4a-ethyl-cis-decahydronaphthalene,166.30668,723.87,0.374,506.15,C/C=C/CC(C)(C)C,00000000100000000000000000000000010000000000000000100010000000000000000000001000100000000000000000000100000000000010000000000000
4a-ethyl-trans-decahydronaphthalene,166.30668,712.43,0.374,498.15,CCCCCC(C)(C)CCCC,00000000100000000000000000101000010000100000000000000000000000000000000000010000100000000000000000000000000000000010000100000000
4a-methyl-cis-decahydronaphthalene,152.2798,711.69,0.331,488.15,CCCCC(C)(C)CCCC,00000000100000000000000000101000010000100000000000000000000000000000000000010000100000000000000000000000000000000010000100000000
4a-methyl-trans-decahydronaphthalene,152.2798,697.11,0.331,478.15,CCCCC(Br)C(Br)CCCC,01000000000000000000000000100000010000100000000000000000000000100000000000100000100000001000000000010000000000000000000100000000
"5,5-dimethyl-1-hexanol",130.23032,617.99,0.738,455.0,CC(C)C(C)CCC(C)O,01000000000000000100000000010000010000010000000000000000000000000000000000000000100000000000000000010000000001000000000001000000
"5,5-dimethyl-1-hexene",112.21504,553.41,0.297,375.65,CCCCC(C)C(C)CCCC,01000000000000000000000000110000010000100000000000000000000000000000000000000000100000000000000000010000000000000000000101000000
"5,5-dimethyl-2-ethyl-1-hexanol",158.28408,645.72,0.788,486.0,Cc1ccc2ncccc2c1C,00000000000000000000000000000000010000000000100000000000001000001000000001100100010000100000000000001000000000010000000000101000
"5,5-dimethyl-2-hexanol",130.23032,599.88,0.706,439.15,Cc1cc(C)c2cccnc2c1,00000000000000000000000000000001010000000000100000000000001000001000000001100100010000100000000000001000000100010000000000100000
"5,5-dimethyl-3-ethyl-3-hexanol",158.28408,617.38,0.724,460.0,Cc1ccc(C)c2ncccc12,00000000000000000000000000000000010000000000100000000000001010001000000000100100010000100000000000001000000000010000000000100000
"5,5-dimethyl-3-heptyne",124.22604,621.49,0.373,421.1,NCCCCCO,00000000000000000001000000000000000000010000000010000000000000000000000000000000100001000100001000000000000000000000000100000000
"5,5-dimethyl-3-hexanol",130.23032,582.12,0.706,426.15,BrCCCC=C,00000000000000000100000000000000000000000000100000000010000000000000000000000000100000101000000000000000000001010000000100010000
"5,5-dimethyl-cis-2-hexene",112.21504,561.87,0.287,380.05,CC(C)=CCCBr,00000000000000000100000000000000010000010000000000000010000000000000000000000000100000001000000100000000010000010000000001010000
"5,5-dimethyl-trans-2-hexene",112.21504,557.73,0.287,377.25,CC=CCCBr,00000000000000000100000000000000010000000000000000000010000000000000000000001000100000001000000000000000000000010000000000010000
"5,5-dimethyldecane",170.33844,640.2,0.489,470.15,C\C=C/CCBr,00000000000000000100000000000000010000000000000000000010000000000000000000001000100000001000000000000000000000010000000000010000
"5,5-dimethylnonane",156.31156,622.47,0.448,450.15,C/C=C/CCBr,00000000000000000100000000000000010000000000000000000010000000000000000000001000100000001000000000000000000000010000000000010000
"5,6-dibromodecane",300.0768,741.82,0.701,550.15,CCCCc1cccc2CCCCc12,00001000000000000000000000100010010000100000000000000000000000001000010000100000110010100001000000001000010000000000000100000000
"5,6-dimethyl-2-heptanol",144.2572,623.04,0.782,465.15,CCCCC(CCCC)=CCCC,00000000000000000100000000101000010000110000000000001010000000000000000000000000100000000000000100000000000000000000000100000000
"5,6-dimethyldecane",170.33844,642.08,0.519,474.15,CCCCC(O)(CCCC)CCCC,00000000100000000000000000101000010000110000000000000000000000000000000000000000100000000000000000000000000000000010100100000000
"5,6-dimethylquinoline",157.21508,784.5,0.497,546.0,CCCCC(CCCC)CCCC,01000000000010000000000000100000010000100000000000000000000000000000000000000000100000000000000000010000000000000000000100000000
"5,7-dimethylquinoline",157.21508,786.16,0.497,547.15,CC(Cl)CCC=C,01000000000000000111000000010000010000000000100000000010000000000000000000000000100000110000000000010000000001000000000000000000
"5,8-dimethylquinoline",157.21508,775.1,0.497,539.15,ClCCCC=C,00000000000000000101000000000000000000000000100010000010000000000000000000000000100001100000000000000000000001000000000100000000
5-amino-1-pentanol,103.16436,626.41,0.841,494.65,CC(C)=CCCCl,00000000000000000101000000000000010000010000000010000010000000000000000000000000100001000000000100000000010000000000000001000000
5-bromo-1-pentene,149.03046,602.3,0.367,401.15,CC=CCCCl,00000000000000000101000000000000010000000000000010000010000000000000000000001000100001000000000000000000000000000000000000000000
5-bromo-2-methyl-2-pentene,163.05734,609.39,0.402,426.15,C\C=C/CCCl,00000000000000000101000000000000010000000000000010000010000000000000000000001000100001000000000000000000000000000000000000000000
5-bromo-2-pentene,149.03046,586.22,0.334,388.08,C/C=C/CCCl,00000000000000000101000000000000010000000000000010000010000000000000000000001000100001000000000000000000000000000000000000000000
5-bromo-cis-2-pentene,149.03046,600.04,0.357,398.15,CCCCC(Cl)CCCC,01000000000000000011000000100000010000100000000000000000000000000000000000000000100000000000000000010000000000000010000100000000
5-bromo-trans-2-pentene,149.03046,600.04,0.357,398.15,CCCCCC(O)CCCC,01000000000000000000000000100000010000110000000000000000000000000000000000000000100000000000000000010000000000000000001100000000
"5-butyl-1,2,3,4-tetrahydronaphthalene",188.3128,760.47,0.511,553.05,CCCCCC(=O)CCCC,00000000001000000000000010101000010000110000000000000000000000000000000000000000100000000000000000000000000000000000000100000100
5-butyl-4-nonene,182.34944,674.44,0.592,488.65,CCCCC#CCCCC,00000000000000000000000100100100011000100000000000000000000000000000000000000000100000000000000000000000000000000000000100000000
5-butyl-5-nonanol,200.36472,724.8,0.642,531.15,CCCCCCCC(=O)CCCC,00000000001000000000000010101000010000110000000000000000000000000000000000000000100000000000000000000000000000000000000100000100
5-butylnonane,184.36532,666.51,0.573,490.65,CCc1cccc2CCCCc12,00001001000000000000000000000010010000100000000000000000000000001000010000100000110010100000000000001000010000000000000000000000
5-chloro-1-hexene,118.60604,583.61,0.341,393.85,CCC(CC)CCCCO,01000000100010000000000000000000010000110000000000000000000000000000000000000000100000000100001000010000000000000000000100000000
5-chloro-1-pentene,104.57916,566.62,0.307,376.15,CCC(CC)CCC(C)C,01000000100010000000000000010000010000100000000000000001000000000000000000000000100000000000000000010000000000000000000000000000
5-chloro-2-methyl-2-pentene,118.60604,583.61,0.341,406.15,CCCCC(CC)CCC(C)O,01000000100010000100000000110000010000110000000000000000000000000000000000000000100000000000000000010000000000000000000100000000
5-chloro-2-pentene,104.57916,561.69,0.275,381.15,CCC#CC(C)(CC)CC,00000000100000000000000100000000011100110010000000000000000000000000000000000000100000000000000010000000000000000010000000000000
5-chloro-cis-2-pentene,104.57916,576.34,0.296,381.15,CCc1cc(C)cc(C)c1,00000001000000000000000000000001010000100000000000000000001000000000000000000000110000000010000000001000000100000000000000000000
5-chloro-trans-2-pentene,104.57916,576.34,0.296,381.15,CCCCCC(CC)CCCC,01000000100010000000000000100000010000100000000000000000000000000000000000000000100000000000000000010000000000000000000100000000
5-chlorononane,162.70256,661.88,0.505,470.76,CCCCC(CC)CCCC,01000000100010000000000000100000010000100000000000000000000000000000000000000000100000000000000000010000000000000000000100000000
5-decanol,158.28408,621.25,0.883,474.15,FCCCC=C,00000000100000000100000000000000000000000000100000000010000000000000000000000000100001110000000000000000000001000000000100000000
5-decanone,156.2682,656.59,0.612,477.05,C\C=C/CCF,00000000100000000100000000000000010000000000000000000010000000000000000000001000100001010000000000000000000000000000000000000000
5-decyne,138.25292,642.22,0.417,450.15,C/C=C/CCF,00000000100000000100000000000000010000000000000000000010000000000000000000001000100001010000000000000000000000000000000000000000
5-dodecanone,184.32196,687.46,0.691,519.25,ICCCC=C,00000000000000000100010000000000000000000000100000000010000000001000000000000000100000110000000000000000000001000000000100000000
"5-ethyl-1,2,3,4-tetrahydronaphthalene",160.25904,737.62,0.424,518.15,C\C=C/CCI,00000000000000000100010000000000010000000000000000000010000000001000000000001000100000010000000000000000000000000000000000000000
5-ethyl-1-heptanol,144.2572,625.91,0.846,472.0,C/C=C/CCI,00000000000000000100010000000000010000000000000000000010000000001000000000001000100000010000000000000000000000000000000000000000
5-ethyl-2-methylheptane,142.28468,606.7,0.424,432.86,CCCCC(CCCC)C(C)C,01000000000000000000000000110000010000100000000000000000000000000000000000000000101000000000000000010000000001000000000100000000
5-ethyl-2-nonanol,172.31096,696.85,0.596,498.0,CCC(C)CCCCO,01000000100000000000000000010000010000110000000000000000000000000000000000000000100000010100001000010000000000000000000100000000
5-ethyl-5-methyl-3-heptyne,138.25292,642.22,0.417,443.65,CCC#CC(C)(CC)CC,00000000100000000000000100000000011100110010000000000000000000000000000000000000100000000000000010000000000000000010000000000000
5-ethyl-m-xylene,134.22116,655.0,0.417,456.93,CCC(C)CCC=C,01000000100000000100000000010000010000100000100000000010000000000000000000000000100000110000000000010000000001000000000000000000
5-ethyldecane,170.33844,639.94,0.548,475.15,CC(C)CCCCO,01000000000000000000000000010000010000010000000000000001000000000000000000000000100000000100001000010000000000000000000100000000
5-ethylnonane,156.31156,619.2,0.507,453.15,CC(C)CCC=C,01000000000000000100000000010000010000000000100000000011000000000000000000000000100000100000000000010000000001000000000000000000
5-fluoro-1-pentene,88.1248632,504.5,0.306,335.15,CC(C)CCC#C,01000000000000000001000000010100011000100000000000000001000000000000000000000010100000000000000000010000000000000000000000000000
5-fluoro-cis-2-pentene,88.1248632,479.34,0.296,317.23,CCCCC(C)CCCCO,01000000000000000000000000110000010000110000000000000000000000000000000000000000100000010100001000010000000000000000000100000000
5-fluoro-trans-2-pentene,88.1248632,479.34,0.296,317.23,CCCC(C)CCCCO,01000000000000000000000000110000010000110000000000000000000000000000000000000000100000010100001000010000000000000000000100000000
5-iodo-1-pentene,196.03093,640.23,0.296,423.15,CCC(CO)CCC(C)C,01000000100010000000000000010000010000110000000000000001000000000000000000000000100000000000001000110000000000000000000000000000
5-iodo-cis-2-pentene,196.03093,624.39,0.286,411.1,CCC(C)CCC(C)O,01000000100000000100000000010000010000110000000000000000000000000000000000000000100000010000000000010000000000000000000000000000
5-iodo-trans-2-pentene,196.03093,624.39,0.286,411.1,CCC(C)CCC(C)=O,01000000101000100000000000011000010000110000000000000000000000000000000000000000100000010000000000010000000000000000000001000100
5-isopropylnonane,170.33844,638.02,0.519,471.15,CC(C)CCC(C)O,01000000000000000100000000010000010000010000000000000001000000000000000000000000100000000000000000010000000000000000000000000000
5-methyl-1-heptanol,130.23032,617.71,0.806,459.75,CC(C)CCC(C)=O,01000000001000100000000000011000010000010000000000000001000000000000000000000000100000000000000000010000000000000000000001000100
"5-methyl-1-heptanol, (±)",130.23032,600.92,0.733,459.75,CC(C)CCC(C)N,01000000000000000011000000010000010000000000000000000001000000000000000000000000100000000000000000010000000000000000000000000000
5-methyl-1-heptene,112.21504,560.59,0.357,386.45,CC#CCC(C)C,01000000010000000000000100010000011000000000000000000001000000000000000000000000100000000000000100000000000000000000000010000000
5-methyl-1-hexanol,116.20344,605.0,0.781,445.15,CC(C)CCC(CO)C(C)C,01000000000000000000000000010000010000010000000000000001000000000000000000000000101000000000001000110000000001000000000000000000
5-methyl-1-hexene,98.18816,528.0,0.31,358.46,CC(C)c1ccc(C)cc1O,01000000000000000000000000010001010000010000000000000000001000000010000100000000010000100000000000001000000101000000000000000000
5-methyl-1-hexyne,96.17228,552.64,0.27,365.0,CCCCC(C)CCC(C)O,01000000000000000100000000110000010000110000000000000000000000000000000000000000100000010000000000010000000000000000000100000000
5-methyl-1-nonanol,158.28408,638.09,0.883,487.0,CCCC(C)CCC(C)O,01000000000000000100000000110000010000110000000000000000000000000000000000000000100000010000000000010000000000000000000000000000
5-methyl-1-octanol,144.2572,627.23,0.846,473.0,CCCC(C)CCC(C)=O,01000000001000100000000000111000010000110000000000000000000000000000000000000000100000010000000000010000000000000000000001000100
5-methyl-2-ethyl-1-hexanol,144.2572,621.0,0.814,466.0,CCCCCc1ccc(C)cc1O,00000000000000000000000000100001010000110000000000000000001000000010010100000000110000100001000000001000000100000000000100000000
5-methyl-2-heptanol,130.23032,601.18,0.773,445.05,CCCc1ccc(C)cc1O,00000000000000000000000000100001010000110000000000000000001000000010010100000000110000100001000000001000000100000000000000000000
5-methyl-2-heptanone,128.21444,624.0,0.528,437.0,CCC(C)c1ccc(C)cc1O,01000000100000000000000000010001010000110000000000000000001000000010000100000000110000100000000000001000000101000000001000000000
5-methyl-2-hexanol,116.20344,581.44,0.731,424.15,CSCCC(C)C,01000000001000000000001000010010010000000000000000000001000000000000000000000000100000000000000000010000000000000000100000000000
5-methyl-2-hexanone,114.18756,601.0,0.434,417.95,CCC(C)CC(O)(CC)CC,01000000100000000000000000010000010000110000000000000000010000000000000000000000100000010000000000000000000000000010100000000000
5-methyl-2-hexylamine,115.21872,565.35,0.409,397.47,CCC(O)(CC)CC(C)C,01000000100000000000000000010000010000110000000000000001010000000000000000000000100000000000000000000000000000000010100000000000
5-methyl-2-hexyne,96.17228,572.5,0.25,375.61,CCCCC(C)CC(CC)CC,01000000100010000000000000110000010000101000000000000000000000000000000000000000100000010000000000010000000000000000000100000000
5-methyl-2-isopropyl-1-hexanol,158.28408,642.85,0.822,486.15,CCC(C)CC(O)CC,01000000100000000000000000010000010000111000000000000000000000000000000000000000100000010000000000010000000000000000001000000000
5-methyl-2-isopropylphenol,150.22056,725.81,0.509,505.65,CCC(C)CC(=O)CC,01100000101000000000000010010000010000110000000000000000000000000000000000000000100000010000000000000000000000000000000000000100
5-methyl-2-nonanol,158.28408,640.97,0.852,487.0,CCC=CC(C)CC,01000000100000000000000100010000010000100000001000000010000000000000000000001000100000001000000000000000000000000000000000000000
5-methyl-2-octanol,144.2572,605.01,0.814,454.0,CCC(O)CC(C)C,01000000100000000000000000010000010000111000000000000001000000000000000000000000100000000000000000010000000000000000001000000000
5-methyl-2-octanone,142.24132,629.65,0.541,456.62,CCCC(C)CCC(=O)C,01000000001000100000000000111000010000110000000000000000000000000000000000000000100000010000000000010000000000000000000001000100
5-methyl-2-pentylphenol,178.27432,755.67,0.59,524.28,CCC(=O)CC(C)C,01100000001000000000000010010000010000110000000000000001000000000000000000000000100000000000000000000000000000000000000000000100
5-methyl-2-propylphenol,150.22056,780.8,0.541,547.87,CCCCC(C)CC(O)CC,01000000100000000000000000110000010000111000000000000000000000000000000000000000100000010000000000010000000000000000001100000000
5-methyl-2-sec-butylphenol,164.24744,751.0,0.569,519.15,CCSCC(C)C,01000000000000000000000000010000010001100000000000000001010000000000010000000000100000000000000000000000000000000000100000000000
5-methyl-2-thiahexane,118.24316,607.44,0.351,411.15,CCCCC(C)C(CC)CCC,01000000100000000000000000110000010000100000000000000000000000000000000000000000101000000000000000010000000000000000000101000000
5-methyl-3-ethyl-3-heptanol,158.28408,619.15,0.788,466.0,CCCCC(C)C(O)CCC,01000000000000000000000000110000010000110000000000000000000000000000000000000000100000000000000000010000000000000000000111000000
5-methyl-3-ethyl-3-hexanol,144.2572,599.36,0.748,445.15,CCCCC(C)=CCCC,00000000000000000100000000101000010000110000000000100010000000000000000000000000100000000000000100000000000000000000000101000000
5-methyl-3-ethylnonane,170.33844,639.37,0.519,472.15,CCCC(C)C(O)CCC,01000000000000000000000000110000010000110000000000000000000000000000000000000000100000000000000000010000000000000000000011000000
5-methyl-3-heptanol,130.23032,576.46,0.773,426.75,CCCCC(C)(CC)CCCC,00000000100001000000000000101000010000110000000000000000000000000000000000000000100000000000000000000000000000000010000100000000
5-methyl-3-heptanone,128.21444,624.0,0.528,435.14,CCCCC(C)(O)CCCC,00000000100000000000000000101000010000110000000000000000000000000000000000000000100000000000000000000000000000000011100100000000
5-methyl-3-heptene,112.21504,564.74,0.328,385.15,CCC(C)C\C=C/C,01000100100000000000000000010000010000100000000000000010000000000000000000001000100000010000000000000000000000000000000000000000
5-methyl-3-hexanol,116.20344,577.32,0.731,421.15,C\C=C/CC(C)C,01000100000000000000000000010000010000000000000000000011000000000000000000001000100000000000000000000000000000000000000000000000
"5-methyl-3-hexanol, (±)",116.20344,587.2,0.709,420.15,CC\C=C/C(C)CC,01000000100000000000000100010000010000100000001000000010000000000000000000001000100000001000000000000000000000000000000000000000