name,molweight,critical temperature (K),acentric factor,boiling point (K),SMILES,ECFP_Bits
"2,3-dimethyl-3-heptanol",144.2572,602.05,0.748,447.15,CCC(CC)CC(C)C(C)C,01000000100010000000000000010000010000101000000000000000000000000000000000000000100000000000000000000000000001000000000001000000
"2,3-dimethyl-3-hexanol",130.23032,589.22,0.706,431.35,CCCC(CC)CC(C)C(C)C,01000000100010000000000000110000010000101000000000000000000000000000000000000000100000000000000000010000000001000000000001000000
"2,3-dimethyl-3-isopropylheptane",170.33844,653.29,0.432,474.15,CCc1cc(C)c(C)c(O)c1,00000001000000000000000000000000010000110000000000000000001000000010000100000000110000000010000000001000000100010000000000001000
"2,3-dimethyl-3-isopropylhexane",156.31156,634.64,0.391,453.15,CCC(CC)CCC(C)C(C)C,01000000100010000000000000010000010000100000000000000000000000000000000000000000100000000000000000010000000001000000000001000000
"2,3-dimethyl-3-octanol",158.28408,614.17,0.788,462.25,CCc1ccc(C)c(C)c1O,00000001000000000000000000000000010000110000000000000000001000000010010000100000110000100000000000001000000000010000000000001000
"2,3-dimethyl-3-pentanol",116.20344,573.26,0.662,413.15,CCC(C)(C(C)C)O,01000000100000000000000000010000010000110000000000000000000000000000000000000000100000000000000000000001000000000010100000000000
"2,3-dimethyl-4-ethylheptane",156.31156,625.29,0.449,452.15,Cc1cccc(N)c1C,00000000000000100001000000000000010000000000000001000000001000001000000000000000010000100000000000001000000000010000000000001000
"2,3-dimethyl-4-ethyloctane",170.33844,640.25,0.491,470.15,Cc1cccc(c2ccccc2)c1C,00000000100000000000000000000000010000000000000000000000001000001000000000000000010000100000000010001000000000010000000000001000
"2,3-dimethyl-4-ethylphenol",150.22056,725.91,0.54,510.0,CC(C)C(C)C=O,01000000001000000000000000010000010000000000000000000010000000001000000000000000000000000000000000000000000011000000000000001000
"2,3-dimethyl-4-isopropylheptane",170.33844,637.13,0.462,465.15,CC(C)C(C)C,01000000000000000000000000010000010000000000000000000000000000000000000000000000000000000000000000000000000001000000000000000000
"2,3-dimethyl-4-propylheptane",170.33844,636.16,0.491,467.15,CC(C)C(C)C#N,01000000000000000000001000010000011000000000000000000000000000000000000001000000000000000100000000000000100001000000000000000000
"2,3-dimethyl-5-ethylheptane",156.31156,623.9,0.449,451.15,CC(C)C(C)C(O)=O,01000100001000000000000000010000010000011000000000001000000000000000000000000000000000000000000000000000000001000000000000000100
"2,3-dimethyl-5-ethyloctane",170.33844,636.16,0.491,467.15,CCCCCCCC(C)C(C)C,01000000000000000000000000110000010000100000000000000000000000000000000000000000100000000000000000010000000001000000000101000000
"2,3-dimethyl-5-ethylphenol",150.22056,725.91,0.54,510.0,CCCCCCCCCC(C)C(C)C,01000000000000000000000000110000010000100000000000000000000000000000000000000000100000000000000000010000000001000000000101000000
"2,3-dimethyl-6-ethyloctane",170.33844,642.97,0.491,472.15,Cc1occc1C,00000000000000001001000000000000010000000000000000000000001000000001000000000000010000100000000000001000000000010000000000000000
"2,3-dimethyl-6-ethylphenol",150.22056,725.91,0.54,510.0,CCCCCCCCCCCCCCC(C)C(C)C,01000000000000000000000000110000010000100000000000000000000000000000000000000000100000000000000000010000000001000000000101000000
"2,3-dimethyl-cis-3-hexene",112.21504,567.08,0.322,387.15,CCCCC(C)C(C)C,01000000000000000000000000110000010000100000000000000000000000000000000000000000100000000000000000010000000001000000000101000000
"2,3-dimethyl-trans-3-hexene",112.21504,567.08,0.322,387.15,CCCCCCCCCCCCCC(C)C(C)C,01000000000000000000000000110000010000100000000000000000000000000000000000000000100000000000000000010000000001000000000101000000
"2,3-dimethylaniline",121.18208,695.58,0.433,494.65,CCCC(C)C(C)C,01000000000000000000000000110000010000100000000000000000000000000000000000000000100000000000000000010000000001000000000001000000
"2,3-dimethylbiphenyl",182.26516,802.0,0.416,551.15,Cc1cc2ccccc2cc1C,00000000000000000000000000000000010000000000000000000000001000011000000000000000010000100000000000001000000100010000000000000000
"2,3-dimethylbutanal",100.16068,567.64,0.402,386.15,CCCCCCC(C)C(C)C,01000000000000000000000000110000010000100000000000000000000000000000000000000000100000000000000000010000000001000000000101000000
"2,3-dimethylbutane",86.17716,500.0,0.25,331.13,CCCCCCCCCCCCCCCC(C)C(C)C,01000000000000000000000000110000010000100000000000000000000000000000000000000000100000000000000000010000000001000000000101000000
"2,3-dimethylbutanenitrile",97.16008,582.4,0.412,401.15,CCCCCC(C)C(C)C,01000000000000000000000000110000010000100000000000000000000000000000000000000000100000000000000000010000000001000000000101000000
"2,3-dimethylbutanoic acid",116.16008,661.0,0.652,464.85,CCCCCCCCCCCCC(C)C(C)C,01000000000000000000000000110000010000100000000000000000000000000000000000000000100000000000000000010000000001000000000101000000
"2,3-dimethyldecane",170.33844,648.85,0.519,479.15,CCC(C)C(C)C,01000000100000000000000000010000010000100000000000000000000000000000000000000000100000000000000000000000000001000000000001000000
"2,3-dimethyldodecane",198.3922,686.04,0.595,520.15,Cc1cccnc1C,00000000000000000000000000000000010000000000100000000000001000001000000000100000010000100000100000001000000000010000000000100000
"2,3-dimethylfuran",96.12892,559.41,0.332,367.65,Cc1cc2ccccc2nc1C,00000000000000000000000000000000010000000000000000000000001000011000000001000000010000100000100000001000000100010000000000100000
"2,3-dimethylheptadecane",268.5266,754.89,0.722,600.15,Cc1cccc(C=C)c1C,00000000000000000000000000000000010000000000000000000010001000001100000000000000010000100000000000011000000001010000000000001000
"2,3-dimethylheptane",128.2578,589.6,0.385,413.66,CCCCCCCCCCCC(C)C(C)C,01000000000000000000000000110000010000100000000000000000000000000000000000000000100000000000000000010000000001000000000101000000
"2,3-dimethylhexadecane",254.49972,742.82,0.706,586.15,CC1CCOC1C,00000000000000001000000000000110011000000000010000000010000000000001000000000000001000000000000000000000000000000000000000010000
"2,3-dimethylhexane",114.23092,563.5,0.346,388.76,Cc1sccc1C,00000000000000100000000000000001010100000000000000000000011000000000000000000000010000100000000000001000000000010000000000000000
"2,3-dimethylnaphthalene",156.22728,777.78,0.443,541.16,Cc1cccc(S)c1C,00000000000000010000000000000000010000000100000000000000001000001000000000000000010000100000000000001100000000010000000000001000
"2,3-dimethylnonane",156.31156,631.11,0.478,459.15,CCCCCCCCCCC(C)C(C)C,01000000000000000000000000110000010000100000000000000000000000000000000000000000100000000000000000010000000001000000000101000000
"2,3-dimethyloctadecane",282.55348,767.45,0.732,614.15,CCCCCCCCC(C)C(C)C,01000000000000000000000000110000010000100000000000000000000000000000000000000000100000000000000000010000000001000000000101000000
"2,3-dimethyloctane",142.28468,613.0,0.433,437.47,C=C(Cc1ccccc1)c2ccccc2,00000000000000000000000000000000000000010000000000000000000000001000010000000000110000100010000001001000010000000000000000000010
"2,3-dimethylpentadecane",240.47284,729.97,0.685,571.15,CC[CH]=[C]=[CH]C,00000000000000000000000000000000011000100000101000001010000000001000000000001000100000000000000000000000000000000000000000000000
"2,3-dimethylpentane",100.20404,537.3,0.296,362.93,C[CH]=[C]=[CH]C,00000000000000000000000000000000011000000000100000001010000000000000000000001000000000000000000000000000000000000000000000000000
"2,3-dimethylpyridine",107.1552,655.4,0.358,434.35,Cc1cccc(O)c1C,00000000000000000000000000000000010000010000000000000000001000001010000100000000010000100000000000001000000000010000000000001000
"2,3-dimethylquinoline",157.21508,774.45,0.497,536.15,CC1=CC2=CC=CC=C2N=C1C,00000000000000000000000000000000010000000000000000000000001000011000000001000000010000100000100000001000000100010000000000100000
"2,3-dimethylstyrene",132.20528,679.34,0.375,465.57,CCC(C)(C)C(C)(C)CC(C)C,01000000100000000000000000010000010000110000000000000001010000010000000000000000100000000000000000000000000000000010000000000000
"2,3-dimethyltetradecane",226.44596,716.26,0.659,555.15,CC(C)C(O)C(C)(C)C(C)C,01000000100100000000000000010000010000010000000000000000000000000000000000000000001000000000000000010001000001000010000000000000
"2,3-dimethyltetrahydrofuran",100.16068,563.4,0.282,370.0,CCC(C)C(C)(C)CC(C)C,01000100100000000000000000010000010000100000100000000001010000000000000000000000100000000000000000000000000000000010000000000000
"2,3-dimethylthiophene",112.19552,635.3,0.297,414.75,CCCC(C)C(C)(C)CC(C)C,01000100100000000000000000110000010000100000100000000001010000000000000000000000100000000000000000010000000000000010000000000000
"2,3-dimethylthiophenol",138.2334,730.98,0.373,489.45,CC(C)CC(C)(C)CC(C)C,01000000100000000000000000010000010000000000000000000001010000000000000000010000100000000000000000000000000000000010000000000000
"2,3-dimethyltridecane",212.41908,701.64,0.629,538.15,CCC(C)CC(C)(C)CC(C)C,01000000100000000000000000010000010000100000000000000001010000000000000000010000100000010000000000000000000000000010000000000000
"2,3-dimethylundecane",184.36532,669.37,0.558,501.15,CC(C)CCC(C)(C)CC(C)C,01000000100000000000000000011000010000000000000000000001010000000000000000010000100000000000000000010000000000000010000000000000
"2,3-diphenyl-1-propene",194.27616,796.49,0.465,562.15,CC(CO)CC(C)(C)C,01000000100000000000000000010000010000010000000000000000010000000000000000000000100000010000001000100100000000000010000000000000
"2,3-hexadiene",82.1454,523.91,0.253,341.15,CC(=C)CC(C)(C)C,00000000100000000000000000000000010001010000000000000000000000000000000000000000101000100000000000000100000000000010000001000010
"2,3-pentadiene",68.11852,497.0,0.218,321.4,CCC(C)(C)CC(C)(C)O,00000000100000000000000000000000010000110000000000000000000000000000000000010000100000010000000000000000000000000010101000000000
"2,3-xylenol",122.1668,722.95,0.516,490.07,CC(C)(C)CC(C)(C)O,00000000100000000000000000000000010000010000000000000000000000000000000000000000100000010000000000000100000000000010101000000000
"2,4'-dimethlbiphenyl",182.26516,788.2,0.455,547.15,CC(C)=CC(C)(C)C,00000000100000000000000000001000010000010000000000000010000000000000000000000000000000000000000000000010010000000010000001000000
"2,4,4,5,5-pentamethylheptane",170.33844,654.48,0.375,469.15,CCCC(C)(C)C(CC)C(C)C,01000000100000000000000000111000010000100000100000000000000000000000000000000000100000000000000000000000000001000010000000000000
"2,4,4,5-tetramethyl-3-hexanol",158.28408,637.55,0.726,475.0,CCC(C(C)C)C(C)(C)CC,01000000100000000000000000010000010000110000100000000000000000000000000000000000100000000000000000000000000001000010000000000000
"2,4,4,5-tetramethylheptane",156.31156,626.24,0.391,447.15,CCC(C)(C)C(O)C(C)C,01000000100000000000000000010000010000110000100000000000000000000000000000000000101000000000000000010000000001000010000000000000
"2,4,4,5-tetramethyloctane",170.33844,639.52,0.432,464.15,CCC(C)(C)C(C(C)C)C(C)C,01000000100000000000001000010000010000110000100000000000000000000000000000000000100000000000000000000000000001000010000000000000
"2,4,4,6-tetramethylheptane",156.31156,612.24,0.391,437.15,CCC(CC)C(C)(C)CC(C)C,01000000100000000000000000010000110000100000100000000001010000000000000000000000100000000000000000000000000000000010000000000000
"2,4,4,6-tetramethyloctane",170.33844,631.25,0.432,458.15,CCCC(C)(C)CC(C)C,01000000100000000000000000111000010000100000000000000001010000000000000000010000100000000000000000000000000000000010000000000000
"2,4,4,7-tetramethyloctane",170.33844,629.87,0.432,457.15,CCC(C)(C)CC(C)C,01000000100000000000000000010000010000110000000000000001010000000000000000010000100000000000000000000000000000000010000000000000
"2,4,4-trimethyl-1-pentanol",130.23032,606.71,0.706,444.15,CCCCCC(C)(C)CC(C)C,01000000100000000000000000111000010000100000000000000001010000000000000000010000100000000000000000000000000000000010000100000000
"2,4,4-trimethyl-1-pentene",112.21504,550.0,0.301,374.59,CCCCC(C)(C)CC(C)C,01000000100000000000000000111000010000100000000000000001010000000000000000010000100000000000000000000000000000000010000100000000
"2,4,4-trimethyl-2-hexanol",144.2572,634.35,0.682,466.0,CC(=C)CC(C)(C)C,00000000100000000000000000000000010001010000000000000000000000000000000000000000101000100000000000000100000000000010000001000010
"2,4,4-trimethyl-2-pentanol",130.23032,579.96,0.639,419.55,CCC(C)(C)C(C)CC(C)C,01000100100000000000000000010000010000111000100000000001000000000000000000000000100000000000000000000000000000000010000000000000
"2,4,4-trimethyl-2-pentene",112.21504,555.0,0.297,378.06,CCCC(C)(C)C(C)CC(C)C,01000100100000000000000000111000010000101000100000000001000000000000000000000000100000000000000000000000000000000010000000000000
"2,4,4-trimethyl-3-ethylheptane",170.33844,643.65,0.432,467.15,CCC(C)C(C)C(C)CC(C)C,01000000100000000000000000010000010000101000000000000001000000000000000000000000100000000000000000000100000000000000000001000000
"2,4,4-trimethyl-3-ethylhexane",156.31156,631.84,0.391,451.15,CC(C)CC(C)C(C)CC(C)C,01000000000000000000000000010000010000001000000000000001000000000000000000000000100000000000000000000000000000000000000001000000
"2,4,4-trimethyl-3-hexanol",144.2572,601.27,0.716,444.15,CC(C)C(C)CC(C)(C)O,01000000100000000000000000010000010000010000000000000000010000000000000000000000100000010000000000000000000001000010100001000000
"2,4,4-trimethyl-3-isopropylhexane",170.33844,644.85,0.404,465.15,CCC(C)C(C)C(CC)C(C)C,01000000100000000000000000010000010000100000000000000000000000001000000000000000100000000000000000000100000001000000000001000000
"2,4,4-trimethyl-5-ethylheptane",170.33844,640.89,0.432,465.15,CCC(C)C(C)(CC)CC(C)C,01000100100000000000000000010000010000110000000000000001010000000010000000000000100000000000000000000000000000000010000000000000
"2,4,4-trimethylheptane",142.28468,600.3,0.383,424.16,CCC(C)C(C)(O)CC(C)C,01000100100000000000000000010000010000110000000000000001010000000000000000000000100000000000000000000000000000000010100000000000
"2,4,4-trimethylhexane",128.2578,581.0,0.352,403.81,CCC(C)(CC)C(C)CC(C)C,01000100100000000000000000010000010000111000000000000001000000000010000000000000100000000000000000000000000000000010000000000000
"2,4,4-trimethylnonane",170.33844,634.33,0.461,463.15,Cc1cc(C)c(N)cc1C,00000000000000100001000000000000010000000000000001000000001000000000000000000000010000000000000000001000000100010000000000000000
"2,4,4-trimethyloctane",156.31156,618.03,0.419,444.15,CCC(C)C(C)CC(C)C,01000000100000000000000000010000010000101000000000000001000000000000000000000000100000000000000000000000000000000000000001000000
"2,4,4-trimethylpentene",112.21504,564.74,0.328,376.15,CCCCC(C)C(C)CC(C)C,01000000000000000000000000110000010000101000000000000001000000000000000000000000100000000000000000010000000000000000000101000000
"2,4,5,5-tetramethylheptane",156.31156,629.04,0.391,449.15,CCCC(C)C(C)CC(C)C,01000000000000000000000000110000010000101000000000000001000000000000000000000000100000000000000000010000000000000000000001000000
"2,4,5,5-tetramethyloctane",170.33844,640.89,0.432,465.15,Cc1cc(C)c(O)cc1C,00000000000000000000000000000000010000010000000000000000001000000010000100000000010000000000000000001000000100010000000000000000
"2,4,5,6-tetramethyloctane",170.33844,639.86,0.462,467.15,Cc1cc(C)c(C)cn1,00000000000000000000000000000000010000000000100000000000001000000001000000000000010000000000000000001000000100010000000000100001
"2,4,5,7-tetramethyloctane",170.33844,629.32,0.462,459.45,CCC(C)(C)CC(C)CC(C)C,01000000100000000000000000010000010000111000000000000001010000000000000000010000100000010000000000000000000000000010000000000000
"2,4,5-trimethyl-2-hexanol",144.2572,630.85,0.716,466.0,CC(C)CC(C)CC(C)(C)O,01000000100000000000000000010000010000011000000000000001010000000000000000000000100000010000000000000000000000000010100000000000
"2,4,5-trimethyl-3-ethylheptane",170.33844,642.6,0.462,469.15,CCC(C(C)C)C(C)CC(C)C,01000000100000000000000000010000010000101000000000000001000000001000000000000000100000000000000000000000000001000000000001000000
"2,4,5-trimethyl-4-heptanol",158.28408,607.56,0.757,455.0,CCC(C)(CC(C)C)CC(C)C,01000000100001000000000000010000010000110000000000000001010000000000000000000000100000000000000000000000000000000010000000000000
"2,4,5-trimethyl-5-ethylheptane",170.33844,647.78,0.432,470.15,CC(C)CC(C)(O)CC(C)C,01000000100000000000000000010000010000010000000000000001010000000000000000000000100000000000000000000000000000000011100000000000
"2,4,5-trimethylaniline",135.20896,705.58,0.413,507.65,Cc1cc(C)c(N)c(C)c1,00000000000000000001000000000001010000000000000001000000001000000000000000000000010000000000000000001000000100010000000000000000
"2,4,5-trimethylheptane",142.28468,606.9,0.397,429.66,CC(C)CC(C)CC(C)C,01000000000000000000000000010000010000001000000000000001000000000000000000000000100000010000000000000000000000000000000000000000
"2,4,5-trimethylnonane",170.33844,637.53,0.491,468.15,CCCC(C)CC(C)CC(C)C,01000000000000000000000000110000010000101000000000000001000000000000000000000000100000010000000000010000000000000000000000000000
"2,4,5-trimethyloctane",156.31156,621.14,0.449,449.15,CCC(C)CC(C)CC(C)C,01000000100000000000000000010000010000101000000000000001000000000000000000000000100000010000000000000000000000000000000000000000
"2,4,5-trimethylphenol",136.19368,737.64,0.494,508.55,Cc1cc(C)c(O)c(C)c1,00000000000000000000000000000001010000010000000000000000001000000010000000100000010000000000000000001000000100010000000000000000
"2,4,5-trimethylpyridine",121.18208,653.0,0.376,461.15,Cc1cc(C)nc(C)c1,00000000000000000000000000000001010000000000000000000000001000010001000000000000010000000000000000001000000100000000000000100000
"2,4,6,6-tetramethyloctane",170.33844,634.0,0.432,460.15,Cc1c(cc(cc1[N+]([O-])=O)[N+]([O-])=O)[N+]([O-])=O,00000000001000000000000000000000010000000001000000000000001000000000001000011000010000000000000000001000000100000100000000101000
"2,4,6-trimethyl-2-heptanol",158.28408,622.25,0.757,466.0,CCC(C)CCC(C)CC(C)C,01000000100000000000000000010000010000101000000000000001000000000000000000000000100000010000000000010000000000000000000000000000
"2,4,6-trimethyl-3-ethylheptane",170.33844,635.76,0.462,464.15,CC(C)CCC(C)CC(C)C,01000000000000000000000000010000010000001000000000000001000000000000000000000000100000010000000000010000000000000000000000000000
"2,4,6-trimethyl-3-heptene, isomer",140.2688,616.98,0.457,439.96,CC(C)CCCC(C)CC(C)C,01000000000000000000000000010000010000001000000000000001000000000000000000000000100000010000000000010000000000000000000100000000
"2,4,6-trimethyl-4-ethylheptane",170.33844,631.25,0.432,458.15,CC(C)c1ccc(O)c(c1)C(C)C,01000000000000000000000000010000010000010000000000000000000000000010000100000000010001100000000000001000000101000000000000000000
"2,4,6-trimethyl-4-heptanol",158.28408,607.76,0.757,455.15,Cc1cc(O)c(cc1C(C)(C)C)C(C)(C)C,00000000100000000000000000000000010100010000000000000000001100000010000100000000010000000000000000001000000100010010000000000000
"2,4,6-trimethylaniline",135.20896,705.58,0.413,505.65,Cc1cc(cc(c1O)C(C)(C)C)C(C)(C)C,00000000110000000000000000000000010100010000000000000000001100000010000000100000010000000000000000001000000100010010000000000000
"2,4,6-trimethylheptane",142.28468,590.3,0.411,420.76,CC(C)(C)c1ccc(O)c(c1)C(C)(C)C,00000000110000000000000000000000010100010000000000000000000100000010000100000000010000100000000000001000000100000010000000000000
"2,4,6-trimethylnonane",170.33844,633.44,0.491,465.15,CC(Br)CC(C)Br,01000000000000000000000000010000010000001000000000000000000000100000000000000000100000001000000000000000001000000000000000000000
"2,4,6-trimethyloctane",156.31156,618.37,0.449,447.15,CC(C)(Cl)CC(C)(C)Cl,00000000100000000001000000000000010100000000000000000000000000000000000000000000100000001000000000000000000000000010001000000000