name,molweight,critical temperature (K),acentric factor,boiling point (K),SMILES,ECFP_Bits
"2,4,6-trimethylphenol",136.19368,716.46,0.494,493.95,FC(F)(F)c1ccc(Cl)cc1Cl,00000000100000000001000000000000000100000100010001000000000000000000000000000000010000101000000000001000000100100010000000000000
"2,4,6-trimethylpyridine",121.18208,653.0,0.375,443.7,ClCc1ccc(Cl)cc1Cl,00000000000000000001000000000000000000000000000001000000000000000000010000000000110011101000000000001000000100100000000000000000
"2,4,6-trinitrotoluene",227.13332,828.0,0.897,625.0,CC(Cl)CC(C)Cl,01000000000000000011000000010000010000001000000000000000000000000000000000000000100000010000000000000000000000000000000000000000
"2,4,7-trimethylnonane",170.33844,636.16,0.491,467.15,Cc1ccc(Cl)cc1Cl,00000000000000000001000000000000010000000000000001000000001000000000000000000000010000101000000000001000000100110000000000000000
"2,4,7-trimethyloctane",156.31156,614.22,0.449,444.15,CCc1ccc(O)c(CC)c1,00000001000000000000000000000000010000110000000000000000000000000010010100000000110000100010000000001000000100000000000000000000
"2,4,8-trimethylnonane",170.33844,632.08,0.491,464.15,CC(F)CC(C)F,01000000100000000000000000110000011000001000000000000000000000000000000000000000100000000000000000000000000000000000000000000000
"2,4-bis(1-methylethyl)phenol",178.27432,755.67,0.59,524.28,CC(I)CC(C)I,01000000000000001000010000010000010000001000000000000010000000000000000000000000100000000000000000000000000000000000000000000000
"2,4-di-tert-butyl-5-methylphenol",220.35496,738.5,0.793,555.15,CSc1ccc(C)cc1C,01000000001000000000000000000001010000000000000000000000001100000000000000000000010000100000000000001000000100010000100000000000
"2,4-di-tert-butyl-6-methylphenol",220.35496,738.5,0.793,542.15,CCc1c(C)cc(C)c2ccccc12,00000001000000000000000000000000010000100000000000000000001000001000000000000100110000100000000000001000000100010010000000000000
"2,4-di-tert-butylphenol",206.32808,765.0,0.631,536.65,CCC(C)CC(C)CO,01000000100000000000000000010000010000111000000000000000000000000000000000000000100000010000001000100000000000000000000000000000
"2,4-dibromopentane",229.9424,673.87,0.448,455.15,CCC(C)CC(C)=C,01000000101000000000000000010000010000110000000000000000000000000000000000000000101000110000000000000000000000000000000001000010
"2,4-dichloro-2,4-dimethylpentane",169.09356,654.02,0.442,454.15,CC(C)CC(C)CO,01000000000000000000000000010000010000011000000000000001000000000000000000000000100000010000001000100000000000000000000000000000
"2,4-dichlorobenzotrifluoride",215.0014296,646.0,0.434,450.65,C1=CC(=C(C=C1Cl)Cl)C(F)(F)F,00000000100000000001000000000000000100000100010001000000000000000000000000000000010000101000000000001000000100100010000000000000
"2,4-dichlorobenzyl chloride",195.4748,737.0,0.26,521.15,CC(C)CC(C)=C,01000000001000000000000000010000010000010000000000000001000000000000000000000000101000100000000000000000000000000000000001000010
"2,4-dichloropentane",141.0398,628.96,0.323,422.15,CCC(C)c1ccc(C)cc1C,01000000100000000000000000010001010000100000000000000000001000000000000000000000110000100000000000001000000101010000001000000000
"2,4-dichlorotoluene",161.03004,705.0,0.359,474.25,CC(C)C(O)C(C)(C)O,01000000100000000000100000010000010000010000000000000000000000000000000000000000001000000000000000010000000001000010100000000000
"2,4-diethylphenol",150.22056,714.21,0.541,501.15,CC(C)(O)CC(C)(C)O,00000000100000000000000000000000010000010000000000000000000000000000000000000000100000010000000000000000000000000010101000000000
"2,4-difluoropentane",108.1312064,491.0,0.321,330.0,CCC(C)(CO)CC(C)C,01000000100001000000000000010000010000110000000000000001010000000000000000000000100000000000001000000000000000000011000000000000
"2,4-diiodopentane",323.94334,750.13,0.302,499.2,CCCC(C)CC(C)(C)O,01000000100000000000000000110000010000110000000000000000010000000000000000000000100000010000000000010000000000000010100000000000
"2,4-dimethyl-(1-thiaethyl)-benzene",152.26028,743.84,0.415,510.74,CCC(C)CC(C)(C)O,01000000100000000000000000010000010000110000000000000000010000000000000000000000100000010000000000000000000000000010100000000000
"2,4-dimethyl-1-ethylnaphthalene",184.28104,811.44,0.536,585.41,CCC(C)C=C(C)C,01000000100000000000000100010000010000110000000000000010000000000000000000000000100000000000000000000000010000000000000001000000
"2,4-dimethyl-1-hexanol",130.23032,605.36,0.773,448.15,CCCCC(C)CC(C)(C)O,01000000100000000000000000110000010000110000000000000000010000000000000000000000100000010000000000010000000000000010100100000000
"2,4-dimethyl-1-hexene",112.21504,561.06,0.332,384.35,CC(C)CC(C)(C)N,01000000100000000001000000010000110100000000000000000001010000000000000000000000100000000000000000000000000000000010000000000000
"2,4-dimethyl-1-pentanol",116.20344,592.4,0.731,432.15,CC(C)CC(C)(C)O,01000000100000000000000000010000010000010000000000000001010000000000000000000000100000010000000000000000000000000010100000000000
"2,4-dimethyl-1-pentanol, (±)",116.20344,587.2,0.709,432.15,CC(C)C=C(C)C,01000000000000000000000000010000011000010000000000000010000000000000000000000000000000000000000000000000010000000000000001000000
"2,4-dimethyl-1-pentene",98.18816,528.74,0.288,354.76,CCC(C)C(CC)(CC)C(C)C,01000100100000000000000000010000010000110000000000000000000000000000000000000000100000000000000000000001000000000010000000000000
"2,4-dimethyl-1-sec-butylbenzene",162.27492,697.15,0.437,481.77,CCC(CC)(C(C)C)C(C)C,01000000000000000000000000010000010000110000000000000000000000000000000000000000100000000000000000000001000000000010000000000000
"2,4-dimethyl-2,3-pentanediol",132.20284,604.17,1.107,459.15,CCC(C(C)C)C(C)(CC)CC,01000000100000000000000000010000010000110000000000000000000000000010000000000000100000000000000000000000000001000010000000000000
"2,4-dimethyl-2,4-pentanediol",132.20284,621.29,1.069,470.0,CCC(C(C)C)(C(C)C)C(C)C,01000000000000000000000000010010010000110000000000000000000000000000000000000000100000000000000000000001000000000010000000000000
"2,4-dimethyl-2-ethyl-1-pentanol",144.2572,620.9,0.748,461.15,CCC(O)(C(C)C)C(C)C,01000001000000000000000000010000010000110000000000000000000000000000000000000000100000000000000000000001000000000010100000000000
"2,4-dimethyl-2-heptanol",144.2572,612.62,0.748,455.0,CCCC(C)C(CC)C(C)C,01000000100000000000000000110000010000100000000000000000000000001000000000000000100000000000000000010000000001000000000001000000
"2,4-dimethyl-2-hexanol",130.23032,578.98,0.706,423.85,CCCCC(C)C(CC)C(C)C,01000000100000000000000000110000010000100000000000000000000000001000000000000000100000000000000000010000000001000000000101000000
"2,4-dimethyl-2-hexene",112.21504,562.1,0.322,383.75,CCC(C(C)C)C(C)C,01000000100000000000000000010000010000100000000000000000000000001000000000000000100000000000000000000000000001000000000000000000
"2,4-dimethyl-2-octanol",158.28408,644.39,0.788,485.0,CCc1c(C)ccc(O)c1C,00000001000000000000000000000000010000110000000000000000001000000010000100000000110000100000000000001000000000010010000000001000
"2,4-dimethyl-2-pentanamine",115.21872,565.35,0.409,395.15,CCC(C)C(O)C(C)C,01000000100000000000000000010000010000110000000000000000000001000000000000000000100000000000000000010000000001000000000001000000
"2,4-dimethyl-2-pentanol",116.20344,563.54,0.662,406.15,CC(C)C(O)(C(C)C)C(C)C,01000000000000000000000000010000010000010000000000000000000000000000000000001000000000000000000000000001000000000010100000000000
"2,4-dimethyl-2-pentene",98.18816,533.21,0.278,356.45,CCCC(C)C(C(C)C)C(C)C,01000100000000000000000000110000010000100000000000000000000000000000000000000000100000000000000000010000000001000000000001000000
"2,4-dimethyl-3,3-diethylhexane",170.33844,651.92,0.432,473.15,CCC(C)C(C(C)C)C(C)C,01000100100000000000000000010000010000100000000000000000000000000000000000000000100000000000000000000000000001000000000001000000
"2,4-dimethyl-3,3-diethylpentane",156.31156,647.25,0.391,462.15,CC(C)C(C(C)C)C(C)C,01000100000000000000000000010000010000000000000000000000000000000000000000000000000000000000000000000000000001000000000000000000
"2,4-dimethyl-3,4-diethylhexane",170.33844,651.92,0.432,473.15,CC(C)C(O)C(C)C,01000000000000000000000000010000010000010000000000000000000001000000000000000000000000000000000000010000000001000000000000000000
"2,4-dimethyl-3-ethyl-3-isopropylpentane",170.33844,664.26,0.404,479.15,CC(C)C(=O)C(C)C,01000000001000000000000000010000010000010000000000000000000000000000010000010000000000000000000000000000000000000000000000000100
"2,4-dimethyl-3-ethyl-3-pentanol",144.2572,610.61,0.716,451.05,CCCC(O)(C(C)C)C(C)C,01000001000000000000000000111000010000110000000000000000000000000000000000000000100000000000000000000001000000000010100000000000
"2,4-dimethyl-3-ethylheptane",156.31156,625.29,0.449,452.15,CCC(C)(CC)C(O)C(C)C,01000000100000000000000000010000010000110000000000000000000000000010000000000000101000000000000000010000000001000010000000000000
"2,4-dimethyl-3-ethyloctane",170.33844,640.25,0.491,470.15,CCCC(C)(CC)CC(C)C,01000000100001000000000000111000010000110000000000000001010000000000000000000000100000000000000000000000000000000010000000000000
"2,4-dimethyl-3-ethylpentane",128.2578,591.0,0.353,409.87,CCCCC(C)(CC)CC(C)C,01000000100001000000000000111000010000110000000000000001010000000000000000000000100000000000000000000000000000000010000100000000
"2,4-dimethyl-3-ethylphenol",150.22056,733.03,0.54,515.0,CCCC(C)(O)CC(C)C,01000000100000000000000000111000010000110000000000000001010000000000000000000000100000000000000000000000000000000011100000000000
"2,4-dimethyl-3-hexanol",130.23032,588.35,0.741,433.15,CCCC(C)(CC(C)C)C(C)C,01000000100000000000000000111000010000100000000000000001010000000010000000000000100000000000000000000001000000000010000000000000
"2,4-dimethyl-3-isopropyl-3-pentanol",158.28408,626.57,0.728,467.65,CCCCC(C)(O)CC(C)C,01000000100000000000000000111000010000110000000000000001010000000000000000000000100000000000000000000000000000000011100100000000
"2,4-dimethyl-3-isopropylheptane",170.33844,637.13,0.462,465.15,CCCC(C)(CCC)CC(C)C,01000000100001000000000000111000010000100000000000000001010000000000000000000000100000000000000000000000000000000010000000000000
"2,4-dimethyl-3-isopropylhexane",156.31156,623.65,0.421,448.15,CCC(CC)C(C)CC(C)C,01000000100000000000000000010000010000101000000000000001000000000000000000000000101000000000000000000000000000000000000001000000
"2,4-dimethyl-3-isopropylpentane",142.28468,614.4,0.365,430.2,CCCC(CC)C(C)CC(C)C,01000000100000000000000000110000010000101000000000000001000000000000000000000000101000000000000000010000000000000000000001000000
"2,4-dimethyl-3-pentanol",116.20344,568.11,0.697,411.95,CCc1cc(O)c(C)cc1C,00000001000000000000000000000000010000110000000000000000001000000010010100000000110000000000000000001000000100010000000000000000
"2,4-dimethyl-3-pentanone",114.18756,576.0,0.405,397.55,CCC(CC)CC(C)CC(C)C,01000000100010000000000000010000010000101000000000000001000000000000000000000000100000010000000000000000000000000000000000000000
"2,4-dimethyl-3-propyl-3-pentanol",158.28408,610.43,0.757,457.15,CCc1cc(C)cc(C)c1O,00000001000000000000000000000001010000110000000000000000001000000010010000100000110000000000000000001000000100010000000000000000
"2,4-dimethyl-4-ethyloctane",170.33844,635.7,0.461,464.15,Cc1ccc(N)c(C)c1,00000000000000100001000000000001010000000000000001000000001000000000000000000000010000100000000000001000000100010000000000000000
"2,4-dimethyl-4-heptanol",144.2572,598.55,0.748,444.55,Cc1ccc(c(C)c1)c2ccccc2,00000000100000000000000000000001010000000000000000000000001000001000000000000000010000100000000010001000000100010000000000000000
"2,4-dimethyl-4-isopropylheptane",170.33844,640.89,0.432,465.15,CCCCCCC(C)CC(C)C,01000000000000000000000000110000010000101000000000000001000000000000000000000000100000010000000000010000000000000000000100000000
"2,4-dimethyl-4-octanol",158.28408,616.49,0.788,464.0,CCCCCCCCC(C)CC(C)C,01000000000000000000000000110000010000101000000000000001000000000000000000000000100000010000000000010000000000000000000100000000
"2,4-dimethyl-4-propylheptane",170.33844,632.97,0.461,462.15,Cc1occ(C)c1,10000000000000001000000000000001010000000000000000000000001000000000000000000010010000000000000000001000000100000000000000000000
"2,4-dimethyl-5-ethylheptane",156.31156,621.14,0.449,449.15,CCCCCCCCCCCCCC(C)CC(C)C,01000000000000000000000000110000010000101000000000000001000000000000000000000000100000010000000000010000000000000000000100000000
"2,4-dimethyl-5-ethyloctane",170.33844,634.8,0.491,466.15,CCCC(C)CC(C)C,01000000000000000000000000110000010000101000000000000001000000000000000000000000100000010000000000010000000000000000000000000000
"2,4-dimethyl-5-ethylphenol",150.22056,733.24,0.54,515.15,CCCCCCCCCCCCC(C)CC(C)C,01000000000000000000000000110000010000101000000000000001000000000000000000000000100000010000000000010000000000000000000100000000
"2,4-dimethyl-6-ethyloctane",170.33844,633.44,0.491,465.15,CCC(C)CC(C)C,01000000100000000000000000010000010000101000000000000001000000000000000000000000100000010000000000000000000000000000000000000000
"2,4-dimethyl-6-ethylphenol",150.22056,711.89,0.54,500.15,CCCCCC(C)CC(C)C,01000000000000000000000000110000010000101000000000000001000000000000000000000000100000010000000000010000000000000000000100000000
"2,4-dimethyl-cis-3-hexene",112.21504,559.76,0.322,382.15,CCCCCCCCCCCCCCC(C)CC(C)C,01000000000000000000000000110000010000101000000000000001000000000000000000000000100000010000000000010000000000000000000100000000
"2,4-dimethyl-trans-3-hexene",112.21504,557.71,0.322,380.75,CCCCC(C)CC(C)C,01000000000000000000000000110000010000101000000000000001000000000000000000000000100000010000000000010000000000000000000100000000
"2,4-dimethylaniline",121.18208,695.58,0.433,487.15,CCCCCCCCCCCC(C)CC(C)C,01000000000000000000000000110000010000101000000000000001000000000000000000000000100000010000000000010000000000000000000100000000
"2,4-dimethylbiphenyl",182.26516,792.44,0.458,545.15,CC(C)CC(C)C,01000000000000000000000000010000010000001000000000000001000000000000000000000000100000000000000000000000000000000000000000000000
"2,4-dimethyldecane",170.33844,640.72,0.519,473.15,Cc1ccnc(C)c1,00000000000000000000000000000001010000000000100000000000001000000001000000100000010000100000000000001000000100000000000000100000
"2,4-dimethyldodecane",198.3922,668.89,0.595,507.15,Cc1cc(C)c2ccccc2n1,00000000000000000000000000000000010000000000000000000000001000011001000001000100010000100000000000001000000100010000000000100000
"2,4-dimethylfuran",96.12892,560.17,0.332,368.15,CCCCCCCCCCC(C)CC(C)C,01000000000000000000000000110000010000101000000000000001000000000000000000000000100000010000000000010000000000000000000100000000
"2,4-dimethylheptadecane",268.5266,730.99,0.722,581.15,CC1COC(C)C1,00010000000010001000000000000110011000000000000000000000000000000000000000000010000000000000000000000000000000000000000000011000
"2,4-dimethylheptane",128.2578,576.8,0.39,406.05,Cc1scc(C)c1,00000000000000000000000000000001010100001000000000000000001000000000000000000000010000000000000000001000000100000000000000000000
"2,4-dimethylhexadecane",254.49972,720.01,0.706,568.15,Cc1ccc(S)c(C)c1,00000000000000010000000000000001010000000100000000000000001000000000000000000000010000100000000000001100000100010000000000000000
"2,4-dimethylhexane",114.23092,553.5,0.344,382.58,CCCCCCCCCC(C)CC(C)C,01000000000000000000000000110000010000101000000000000001000000000000000000000000100000010000000000010000000000000000000100000000
"2,4-dimethylnonane",156.31156,620.12,0.478,451.15,CCCCCCCC(C)CC(C)C,01000000000000000000000000110000010000101000000000000001000000000000000000000000100000010000000000010000000000000000000100000000
"2,4-dimethyloctadecane",282.55348,742.46,0.732,594.15,Cc1ccc(cc1[N+]([O-])=O)[N+]([O-])=O,00000000001000000000000000000000010000000001000000000000001000000000001000011000010000100000000000001000000100010100000000100000
"2,4-dimethyloctane",142.28468,600.0,0.435,429.05,CC(C)(CC(=C)c1ccccc1)c2ccccc2,00000000110000000000000000000000010001010000000000000000001000001000000000000000110000100000000001001000010000000010000000000010
"2,4-dimethylpentadecane",240.47284,708.24,0.685,554.15,CC=CC=CC,00000000000000000000000000000000010000000000000010000010000000000000000000001000100000000000000000000000000000000000000000000000
"2,4-dimethylpentane",100.20404,519.8,0.302,353.64,Cc1ccc(O)c(C)c1,00000000000000000000000000000001010000010000000000000000001000000010000100000000010000100000000000001000000100010000000000000000
"2,4-dimethylpyridine",107.1552,647.0,0.364,431.55,CCC(C)C(C)(C)CCC(C)C,01000100100000000000000000011000010000100000100000000001000000000000000000000000100000000000000000010000000000000010000000000000
"2,4-dimethylquinoline",157.21508,776.4,0.497,540.36,CC(C)(C)CCC(C)(C)O,00000000100000000000000000001000010000010000000000000000000000000000000000000000100000010000000000000100000000000010100000000000
"2,4-dimethyltetradecane",226.44596,695.62,0.659,539.15,CCC(CC(C)(C)CC)C(C)C,01000000100000000000000000010000010000110000000000000000010000000000000000010000101000000000000000000000000001000010000000000000
"2,4-dimethyltetrahydrofuran",100.16068,564.54,0.282,370.75,CC(C)C(O)CC(C)(C)C,01000000100000000000000000010000010000010000000000000000010000000000000000000000100000000000000000010100000001000010000010000000
"2,4-dimethylthiophene",112.19552,634.0,0.297,413.85,CCC(CC(C)C)C(C)(C)CC,01000000100000000000000000010000110000111000100000000001000000000000000000000000100000000000000000000000000000000010000000000000
"2,4-dimethylthiophenol",138.2334,718.58,0.373,481.15,CCC(C)(C)CCC(C)C,01000000100000000000000000011000010000110000000000000001000000000000000000010000100000000000000000010000000000000010000000000000
"2,4-dimethyltridecane",212.41908,683.39,0.629,524.15,CCCCC(C)(C)CCC(C)C,01000000100000000000000000111000010000100000000000000001000000000000000000010000100000000000000000010000000000000010000100000000
"2,4-dimethylundecane",184.36532,653.35,0.558,489.15,CCCC(C)(C)CCC(C)C,01000000100000000000000000111000010000100000000000000001000000000000000000010000100000000000000000010000000000000010000000000000
"2,4-dinitrotoluene",182.13572,814.0,0.713,590.0,CCC(C)(C)C(C)CCC(C)C,01000100100000000000000000010000010000110000100000000001000000000000000000000000100000000000000000010000000000000010000000000000
"2,4-diphenyl-4-methyl-1-pentene",236.3568,835.0,0.547,614.0,CC(C)C(C)CCC(C)(C)O,01000000100000000000000000011000010000010000000000000000000000000000000000000000100000010000000000010000000001000010100001000000
"2,4-hexadiene",82.1454,526.51,0.25,353.15,CCCC(C)C(C)CCC(C)C,01000000000000000000000000110000010000100000000000000001000000000000000000000000100000000000000000010000000000000000000001000000
"2,4-xylenol",122.1668,707.65,0.514,484.13,CCC(C)C(C)CCC(C)C,01000000100000000000000000010000010000100000000000000001000000000000000000000000100000000000000000010000000000000000000001000000
"2,5,5,6-tetramethyloctane",170.33844,643.65,0.432,467.15,CCC(C)CC(C)CCC(C)C,01000000100000000000000000010000010000101000000000000001000000000000000000000000100000010000000000010000000000000000000000000000
"2,5,5-trimethyl-2-hexanol",144.2572,634.35,0.682,466.0,CC(C)CCC(C)CCC(C)C,01000000000000000000000000010000010000000000000000000001000000000000000000000000100000010000000000010000000000000000000000000000
"2,5,5-trimethyl-3-ethylheptane",170.33844,638.14,0.432,463.15,CC(Br)CCC(C)Br,01000000000000000000000000010000010000000000000000000000000000100000000000000000100000001000000000010000001000000000000000000000
"2,5,5-trimethyl-4-ethylheptane",170.33844,640.89,0.432,465.15,CC(C)(Cl)CCC(C)(C)Cl,00000000100000000001000000001000010100000000000000000000000000000000000000000000100000001000000000000000000000000010000000000000
"2,5,5-trimethylheptane",142.28468,602.9,0.383,425.96,C[C@@H](Cl)CC[C@@H](C)Cl,01000000000000000011000000010000010000000000000000000000000000000000000000000000100000010000000000010000000000000000000000000000