name,molweight,critical temperature (K),acentric factor,boiling point (K),SMILES,ECFP_Bits
"2,2,3,5-tetramethyl-4-ethylhexane",170.33844,643.47,0.404,464.15,CCCCC(C)(CC)C(C)(C)C,00000000100000000000000000101000010000110000000000000000000000000000000000000000100000000000001001000000000000000010000100000000
"2,2,3,5-tetramethylheptane",156.31156,626.24,0.391,447.15,CCCC(C)(CC)C(C)(C)C,00000000100000000000000000101000010000110000000000000000000000000000000000000000100000000000001001000000000000000010000000000000
"2,2,3,5-tetramethylhexane",142.28468,601.3,0.357,421.56,CCCCC(C)(O)C(C)(C)C,00000000100000001000000000101000010000110000000000000000000000000000000000000000100000000000000001000000000000000010100100000000
"2,2,3,5-tetramethyloctane",170.33844,640.89,0.432,465.15,CCCC(C)(O)C(C)(C)C,00000000100000001000000000101000010000110000000000000000000000000000000000000000100000000000000001000000000000000010100000000000
"2,2,3,6,6-pentamethylheptane",170.33844,639.14,0.375,458.15,CCCC(C)(C(C)C)C(C)(C)C,01000000100000000000000000111000010000100000000000000000000000000000000000000000100000000000000011000001000000000010000000000000
"2,2,3,6-tetramethylheptane",156.31156,620.64,0.391,443.15,CCC(C)(O)C(C)(C)C,00000000100000001000000000000000010000110000000000000000000000000000000000000000100000000000000001000000000000000010100000000000
"2,2,3,6-tetramethyloctane",170.33844,643.65,0.432,467.15,CCCC(CC)C(C)C(C)(C)C,01000000100001000000000000110000010000100000000000000000000000000000000000000000101000000000000000010000000001000010000000000000
"2,2,3,7-tetramethyloctane",170.33844,643.65,0.432,467.15,CCC(CC)C(C)C(C)(C)C,01000000100001000000000000010000010000100000000000000000000000000000000000000000101000000000000000000000000001000010000000000000
"2,2,3-trichloro-3-methylbutane",175.48456,635.09,0.345,455.65,CCC(CC)CC(C)C(C)(C)C,01000100100010000000000000010000010000101000000000000000000000000000000000000000100000000000000000000000000001000010000000000000
"2,2,3-triiodobutane",435.81299,874.42,0.24,566.67,CC(C)C(C)(C)C,01000000100000000000000000010000010000000000000000000000000000000000000000000000000000000000000000000001000001000010000000000000
"2,2,3-trimethyl-1-butanol",116.20344,596.85,0.662,430.15,CCCCC(C)C(C)(C)C,01000100100000000000000000110000010000100000000000000000000000000000000000000000100000000000000000010000000001000010000100000000
"2,2,3-trimethyl-1-pentanol",130.23032,611.49,0.706,447.65,CCCC(C)C(C)(C)C,01000100100000000000000000110000010000100000000000000000000000000000000000000000100000000000000000010000000001000010000000000000
"2,2,3-trimethyl-3-ethylheptane",170.33844,655.89,0.403,473.15,CCCCCCC(C)C(C)(C)C,01000100100000000000000000110000010000100000000000000000000000000000000000000000100000000000000000010000000001000010000100000000
"2,2,3-trimethyl-3-ethylhexane",156.31156,638.82,0.361,453.15,CCCCCC(C)C(C)(C)C,01000100100000000000000000110000010000100000000000000000000000000000000000000000100000000000000000010000000001000010000100000000
"2,2,3-trimethyl-3-heptanol",158.28408,616.23,0.724,459.15,CCC(C)C(C)(C)C,01000100100000000000000000010000010000100000000000000000000000000000000000000000100000000000000000000000000001000010000000000000
"2,2,3-trimethyl-3-hexanol",144.2572,607.47,0.682,446.25,CC1SC1(C)C,00000000000000000000000000000100010110000000000000000000000000000000000000000000000000100000000000010000000000000000000000110100
"2,2,3-trimethyl-3-isopropylhexane",170.33844,661.46,0.375,474.15,CCC(C)C(C)(C)CC(C)(C)C,01000100100000000000000000010000010000100000100000000000000000000000000000000000100000000000000000000100000000000010001000000000
"2,2,3-trimethyl-3-pentanol",130.23032,587.7,0.639,425.15,CC(C)C(C)(C)CC(C)(C)C,01000000100000000000000000010000010000000000100000000000000000000000000000000000100000000000000000000101000000000010001000000000
"2,2,3-trimethyl-4-ethylheptane",170.33844,642.27,0.432,466.15,CC(CC(C)(C)C)CC(C)(C)CC(C)(C)C,01000000100000000000000000010000010000000000000000000000010000000000000000010000100000010000000000000100000000000010001000000000
"2,2,3-trimethyl-4-ethylhexane",156.31156,629.04,0.391,449.15,CC(C)CC(C)(C)CC(C)(C)C,01000000100000000000000000010000010000000000000000000001010000000000000000010000100000000000000000000100000000000010001000000000
"2,2,3-trimethyl-5-ethylheptane",170.33844,640.89,0.432,465.15,CCC(C(C)(C)C)C(C)(C)CC,01000000100000000000000000000000010000111000100000000000000000000000000000000000100000000000000000000000000001000010000000000000
"2,2,3-trimethylbutane",100.20404,531.17,0.25,354.03,CCC(C(C)(C)C)C(C)(C)C,01000000100000000000000000000000010000101000000000000000000000000000000000000000100000000000000000000000000001000010000000000000
"2,2,3-trimethylheptane",142.28468,611.7,0.378,430.76,CCC(C)(C)C(O)C(C)(C)C,01000000100000000000000000000000010000110000100000000000000000000000000000000000100000000000000000010000000001000010000000000000
"2,2,3-trimethylhexane",128.2578,588.0,0.332,406.75,CC(C)C(C(C)(C)C)C(C)(C)C,01000000100000000000000000010000010000000000000000000000000000000000000000000000000000000000100000000000000001000010000000000000
"2,2,3-trimethylnonane",170.33844,648.03,0.461,473.15,CC(C)(C)C(O)C(C)(C)C,01000000100000000000000000000000010000010000000000000000000000000000000000000000100000000000000000010000000001000010000000000000
"2,2,3-trimethyloctane",156.31156,629.17,0.419,452.15,CCCC(C)(C)CC(C)(C)C,00000000100000000000000000101000010000100000000000000000000000000000000000010000100000000000000000000100000000000010001000000000
"2,2,3-trimethylpentane",114.23092,563.5,0.297,382.99,CCC(C)(C)CC(C)(C)C,00000000100000000000000000000000010000110000000000000000000000000000000000010000100000000000000000000100000000000010001000000000
"2,2,3-trimethylthiacyclopropane",102.2004,569.72,0.224,363.94,CCCCC(C)(C)CC(C)(C)C,00000000100000000000000000101000010000100000000000000000000000000000000000010000100000000000000000000100000000000010001100000000
"2,2,4,4,5-pentamethylheptane",170.33844,654.48,0.375,469.15,CC(C)(C)CC(C)(C)C,00000000100000000000000000000000010000000000000000000000000000000000000000000000100000000000000000000100000000000010001000000000
"2,2,4,4,5-pentamethylhexane",156.31156,637.53,0.333,449.15,CCC(C)(C)C(C)CC(C)(C)C,01000100100000000000000000010000010000110000100000000000010000000000000000000000100000000000000000000100000000000010000000000000
"2,2,4,4,6,8,8-heptamethylnonane",226.44596,692.0,0.548,519.5,CC(C)C(C)C(C)CC(C)(C)C,01000000100000000000000000010000010000000000000000000000010000000000000000000000100000000000000000000100000001000010000001000000
"2,2,4,4,6-pentamethylheptane",170.33844,639.98,0.375,458.75,CCC(C(C)C(C)C)C(C)(C)C,01000000100000000000000000010000010000100000000000000000000000000000000000000000100000000000000000000100000001000010000000000000
"2,2,4,4-tetramethyl-3-ethylhexane",170.33844,660.06,0.375,473.15,CCC(C)(CC(C)(C)C)C(C)C,01000000100000000000000000010000010000110000000000000000000000000010000000000000100000000000000000000101000000000010001000000000
"2,2,4,4-tetramethyl-3-ethylpentane",156.31156,643.21,0.333,453.15,CCC(C)C(C)CC(C)(C)C,01000000100000000000000000010000010000100000000000000000010000000000000000000000100000000000000000000100000000000010000001000000
"2,2,4,4-tetramethyl-3-hexanol",158.28408,624.93,0.693,463.15,CC(C)C(C)CC(C)(C)C,01000000100000000000000000010000010000000000000000000000010000000000000000000000100000000000000000000100000001000010000001000000
"2,2,4,4-tetramethyl-3-isopropylpentane",170.33844,655.97,0.347,467.15,CCCC(C)C(C)CC(C)(C)C,01000000100000000000000000110000010000100000000000000000010000000000000000000000100000000000000000010100000000000010000001000000
"2,2,4,4-tetramethyl-3-pentanol",144.2572,602.64,0.651,440.15,CC(CC(C)(C)C)=CC(C)(C)C,00000000100000000000000000001000010001010000000000100010000000000000000000000000100000000000000000000110000000000010000001000000
"2,2,4,4-tetramethylheptane",156.31156,624.72,0.361,443.15,CC(CC(C)(C)C)CC(C)(C)C,01000000100000000000000000010000010000000000000000000000010000000000000000000000100000010000000000000100000000000010000000000000
"2,2,4,4-tetramethylhexane",142.28468,610.2,0.344,426.96,CC(C)CC(C)CC(C)(C)C,01000000100000000000000000010000010000001000000000000001010000000000000000000000100000010000000000000100000000000010000000000000
"2,2,4,4-tetramethyloctane",170.33844,644.8,0.403,465.15,CCC(C)CC(C)CC(C)(C)C,01000000100000000000000000010000010000101000000000000000010000000000000000000000100000010000000000000100000000000010000000000000
"2,2,4,4-tetramethylpentane",128.2578,574.6,0.314,395.44,CC(C)CCC(C)CC(C)(C)C,01000000100000000000000000010000010000000000000000000001010000000000000000000000100000010000000000010100000000000010000000000000
"2,2,4,5,5-pentamethylheptane",170.33844,640.53,0.375,459.15,CC(C)C(O)C(C)(C)CO,01000000100000000000000000010000010000010000100000000000000000000000000000000000101000000000001000010000000001000011000000000000
"2,2,4,5,6-pentamethylheptane",170.33844,635.15,0.404,458.15,CC(C)C(O)C(C)(C)CO.CC(C)C(O)=O,01000100101000000000000000010000010000010000100000001000000000000000010000000000101000000000001000010000000001000011000000000100
"2,2,4,5-tetramethyl-3-ethylhexane",170.33844,642.08,0.404,463.15,CC(C)CC(C)(C)CO,01000000100000000000000000010000010000010000000000000001010000000000000000010000100000000000001000000000000000000011000000000000
"2,2,4,5-tetramethyl-4-ethylhexane",170.33844,655.88,0.375,470.15,CCC(CC)(C(C)C)C(C)(C)C,01000000100000000000000000010000010000110000000000000000000000000000000100000000100000000000000001000001000000000010000000000000
"2,2,4,5-tetramethylheptane",156.31156,619.24,0.391,442.15,CCC(O)(C(C)C)C(C)(C)C,01000000100000000000000000010000010000110010000000000000000000000000000000000000100000000000000001000001000000000010100000000000
"2,2,4,5-tetramethylhexane",142.28468,598.5,0.363,421.04,CCCC(C)C(CC)C(C)(C)C,01000000100000000000000000110000010000100000000000000000000000000000000000000000100000000000000000010000000001000010000001000000
"2,2,4,5-tetramethyloctane",170.33844,634.0,0.432,460.15,CCC(C)C(CC)C(C)(C)C,01000000100000000000000000010000010000100000000000000000000000000000000000000000100000000000000000000000000001000010000001000000
"2,2,4,6,6-pentamethyl-3-heptene",168.32256,656.77,0.548,453.7,CCC(C)C(O)C(C)(C)C,01000000100000000000000000010000010000110000000000000000000000000000000000000000101000000000000000010000000001000010000001000000
"2,2,4,6,6-pentamethylheptane",170.33844,629.3,0.375,451.1,CCC(C)C(C(C)C)C(C)(C)C,01000000100000000000001000010000010000100000000000000000000000000000000000000000100000000000000000000000000001000010000001000000
"2,2,4,6-tetramethylheptane",156.31156,609.72,0.391,435.35,CC(C)C(C(C)C)C(C)(C)C,01000000100000000000001000010000010000000000000000000000000000000000000000000000000000000000000000000000000001000010000000000000
"2,2,4,6-tetramethyloctane",170.33844,631.25,0.432,458.15,CC(C)C(O)C(C)(C)C,01000000100000000000000000010000010000010000000000000000000000000000000000000000001000000000000000010000000001000010000000000000
"2,2,4,7-tetramethyloctane",170.33844,630.97,0.432,457.95,CC(C)C(=O)C(C)(C)C,01000000101000100000000000010000010000010000000000000000000000000000010000000000000000000000000000000001000000000010000000000100
"2,2,4-trimethyl-1,3-pentanediol",146.22972,680.0,0.841,505.15,CCCC(C)(CC)CC(C)(C)C,00000000100001000000000000101000010000110000000000000000000000000000000000000000100000000000000000000100000000000010001000000000
"2,2,4-trimethyl-1,3-pentanediol monoisobutyrate",216.32076,662.0,1.05,524.15,CCC(C)(CC)CC(C)(C)C,00000000100001000000000000000000010000110000000000000000000000000000000000000000100000000000000000000100000000000010001000000000
"2,2,4-trimethyl-1-pentanol",130.23032,603.02,0.706,441.45,CCCC(C)(O)CC(C)(C)C,00000000100000000000000000101000010000110000000000000000000000000000000000000000100000000000000000000100000000000011101000000000
"2,2,4-trimethyl-3,3-diethylpentane",170.33844,668.43,0.375,479.15,CCC(CC)C(C)CC(C)(C)C,01000000100000000000000000010000010000100000000000000000010000000000000000000000101000000000000000000100000000000010000001000000
"2,2,4-trimethyl-3-ethyl-3-pentanol",158.28408,626.28,0.693,464.15,CCCC(C)CC(C)(C)C,01000000100000000000000000110000010000100000000000000000010000000000000000000000100000010000000000010100000000000010000000000000
"2,2,4-trimethyl-3-ethylheptane",170.33844,640.89,0.432,465.15,CCC(C)CC(C)(C)C,01000000100000000000000000010000010000100000000000000000010000000000000000000000100000010000000000000100000000000010000000000000
"2,2,4-trimethyl-3-ethylhexane",156.31156,627.64,0.391,448.15,CCCCCC(C)CC(C)(C)C,01000000100000000000000000110000010000100000000000000000010000000000000000000000100000010000000000010100000000000010000100000000
"2,2,4-trimethyl-3-hexanol",144.2572,598.56,0.716,442.15,CCCCC(C)CC(C)(C)C,01000000100000000000000000110000010000100000000000000000010000000000000000000000100000010000000000010100000000000010000100000000
"2,2,4-trimethyl-3-isopropylhexane",170.33844,640.7,0.404,462.15,CC(C)CC(C)(C)C,01000000100000000000000000010000010000000000000000000001010000000000000000000000100000000000000000000100000000000010000000000000
"2,2,4-trimethyl-3-isopropylpentane",156.31156,624.78,0.362,443.15,CC(C)C(C)(C)CCC(C)(C)C,01000000100000000000000000011000010000000000100000000000000000000000000000000000100000000000000000000101000000000010000000000000
"2,2,4-trimethyl-3-pentanol",130.23032,582.81,0.674,424.15,CCC(CC(C)(C)C)C(C)(C)C,01000000100000000000000000000000110000100000000000000000010000000000000000000000100000000000000000000100000001000010000000000000
"2,2,4-trimethyl-3-pentanone",128.21444,624.0,0.528,408.25,CC(C)(C)CC(O)C(C)(C)C,01000000100000000000000000000000010000010000000000000000011000000000000000000000100000000000000000010100000001000010000000000000
"2,2,4-trimethyl-4-ethylheptane",170.33844,647.57,0.403,467.15,CCC(C)(C)CCC(C)(C)C,00000000100000000000000000001000010000110000000000000000000000000000000000010000100000000000000000000100000000000010000000000000
"2,2,4-trimethyl-4-ethylhexane",156.31156,636.0,0.361,451.15,CC(C)(C)C=CC(C)(C)C,00000000100000000000000000000000010000000000000000000010000000000000000000000000000000000000000000000010000001000010000000000000
"2,2,4-trimethyl-4-heptanol",158.28408,609.52,0.724,454.15,CC(C)(C)CCC(C)(C)C,00000000100000000000000000001000010000000000000000000000000000000000000000000000100000000000000000000100000000000010000000000000
"2,2,4-trimethyl-5-ethylheptane",170.33844,634.0,0.432,460.15,CCCC(C)(C)CCC(C)(C)C,00000000100000000000000000101000010000100000000000000000000000000000000000010000100000000000000000000100000000000010000000000000
"2,2,4-trimethylheptane",142.28468,594.5,0.389,421.46,CC(C)C(C)CCC(C)(C)C,01000000100000000000000000011000010000000000000000000000000000000000000000000000100000000000000000010100000001000010000001000000
"2,2,4-trimethylhexane",128.2578,573.5,0.321,399.69,CCC(C)C(C)CCC(C)(C)C,01000000100000000000000000011000010000100000000000000000000000000000000000000000100000000000000000010100000000000010000001000000
"2,2,4-trimethylnonane",170.33844,635.7,0.461,464.15,CC(C)CC(C)CCC(C)(C)C,01000000100000000000000000011000010000001000000000000001000000000000000000000000100000010000000000010100000000000010000000000000
"2,2,4-trimethyloctane",156.31156,618.73,0.419,444.65,CCC(C)CC(CC)C(C)(C)C,01000000100000000000000000010000110000101000000000000000000000000000000000000000100000010000000000000000000001000010000000000000
"2,2,4-trimethylpentane",114.23092,543.8,0.303,372.39,CCC(CC(C)C)C(C)(C)C,01000000100000000000000000010000110000101000000000000001000000000000000000000000100000000000000000000000000001000010000000000000
"2,2,5,5,6-pentamethylheptane",170.33844,640.53,0.375,459.15,CC(C)CC(O)C(C)(C)C,01000000100000000000000000010000010000011000000000000001001000000000000000000000100000000000000000010000000001000010000000000000
"2,2,5,5-tetramethyl-3-ethylhexane",170.33844,632.16,0.375,453.15,CC(C)CC(C(C)C)C(C)(C)C,01000000100000000000000000010000010000001000000000000001000000000000000000000000100000000000000000000000000001000010000000000000
"2,2,5,5-tetramethyl-3-hexanol",158.28408,597.94,0.693,443.15,CCC(C)C(CC)CC(C)(C)C,01000000100000000000000000010000010000100000000000000000010000000000000000000000101000000000000000000100000000000010000001000000
"2,2,5,5-tetramethylheptane",156.31156,619.08,0.361,439.15,CCC(CC(C)(C)C)C(C)C,01000000100000000000000000010000010000100000000000000000010000000000000000000000101000000000000000000100000001000010000000000000
"2,2,5,5-tetramethylhex-3-ene",140.2688,616.98,0.457,397.45,CCC(C)C(O)CC(C)(C)C,01000000100000000000000000010000010000110000000000000000010000000000000000000000100000000000000000010100000000000010000011000000
"2,2,5,5-tetramethylhexane",142.28468,581.4,0.377,410.61,CC(C)C(CC(C)(C)C)C(C)C,01000000100000000000000000010000010000000000000000000000010000001000000000000000100000000000000000000100000001000010000000000000
"2,2,5,5-tetramethyloctane",170.33844,633.71,0.403,457.15,CCC(C)(CC)CCC(C)(C)C,00000000100001000000000000001000010000110000000000000000000000000000000000000000100000000000000000000100000000000010000000000000
"2,2,5,6-tetramethylheptane",156.31156,619.24,0.391,442.15,CCC(C)CCC(C)(C)C,01000000100000000000000000011000010000100000000000000000000000000000000000000000100000010000000000010100000000000010000000000000
"2,2,5,6-tetramethyloctane",170.33844,638.14,0.432,463.15,CC(C)CCC(C)(C)C,01000000100000000000000000011000010000000000000000000001000000000000000000000000100000000000000000010100000000000010000000000000
"2,2,5,7-tetramethyloctane",170.33844,631.25,0.432,458.15,CCCCC(C)CCC(C)(C)C,01000000100000000000000000111000010000100000000000000000000000000000000000000000100000010000000000010100000000000010000100000000
"2,2,5-trimethyl-3-ethylheptane",170.33844,638.14,0.432,463.15,CCCC(C)CCC(C)(C)C,01000000100000000000000000111000010000100000000000000000000000000000000000000000100000010000000000010100000000000010000000000000
"2,2,5-trimethyl-3-ethylhexane",156.31156,620.64,0.391,443.15,CC(C)(C)CCCC(C)(C)C,00000000100000000000000000001000010000000000000000000000000000000000000000000000100000000000000000000100000000000010000100000000
"2,2,5-trimethyl-3-hexanol",144.2572,586.38,0.716,433.15,CCC(C)(C)CCCC(C)(C)C,00000000100000000000000000001000010000110000000000000000000000000000000000010000100000000000000000000100000000000010000100000000
"2,2,5-trimethyl-3-isopropylhexane",170.33844,628.22,0.404,453.15,CC(C)C(C)CCCC(C)(C)C,01000000100000000000000000011000010000000000000000000000000000000000000000000000100000000000000000010100000001000010000101000000
"2,2,5-trimethyl-4-ethylheptane",170.33844,632.63,0.432,459.15,CCC(CCC(C)C)C(C)(C)C,01000000100000000000000000010000110000100000000000000001000000000000000000000000100000000000000000010000000001000010000000000000
"2,2,5-trimethyl-4-ethylhexane",156.31156,615.04,0.391,439.15,CC(C)CCC(O)C(C)(C)C,01000000100000000000000000010000010000010000000000000001001000000000000000000000100000000000000000010000000001000010000000000000
"2,2,5-trimethyl-4-heptanol",158.28408,607.56,0.757,455.0,CCC(CC(C)C)CC(C)(C)C,01000000100010000000000000010000010000101000000000000001010000000000000000000000100000000000000000000100000000000010000000000000
"2,2,5-trimethyl-4-isopropylhexane",170.33844,628.22,0.404,453.15,CC(C)CC(O)CC(C)(C)C,01000000100000000000000000010000010000011000000000000001010000000000000000000000100000000000000000010100000000000010001000000000
"2,2,5-trimethyl-5-ethylheptane",170.33844,640.64,0.403,462.15,CCC(CCC(C)(C)C)C(C)C,01000000100000000000000000011000010000100000000000000000000000000000000000000000101000000000000000010100000001000010000000000000
"2,2,5-trimethylheptane",142.28468,598.0,0.389,423.96,CC(C)CCCC(C)(C)C,01000000100000000000000000011000010000000000000000000001000000000000000000000000100000000000000000010100000000000010000100000000
"2,2,5-trimethylhexane",128.2578,569.8,0.345,397.24,CCCC(C)CCCC(C)(C)C,01000000100000000000000000111000010000100000000000000000000000000000000000000000100000010000000000010100000000000010000100000000