name,molweight,critical temperature (K),acentric factor,boiling point (K),SMILES,ECFP_Bits
indene,116.16252,687.0,0.335,455.77,OC(=O)c1cccc(c1)C(O)=O,00000100001000000000000000000000000000010000000000000000000000001000000010000000010000100000000000001000010100000000000000000100
indole,117.15032,790.0,0.376,526.15,ClC(=O)c1cccc(c1)C(Cl)=O,00000000001010000001010000000000000000010000000000000000000000001000000000000000010000100000000000001000010100000000000000000100
iodine,253.80894,819.15,0.1115,457.56,C[C@@]1(CC[C@H]2C(=CC[C@@H]3[C@]2(C)CCC[C@@]3(C)C(O)=O)C1)C=C,00001100001000000000000000000010010010010000110000010011110001000000010000000000010000100000001000001000000001000000010000110100
iodine heptafluoride,259.8932924,447.53,0.122,277.95,CC(=C)C=C,00000000000000000000000000000000010000010000001000000010000000010000000000000000000000100000000000000000000001000000000001000010
iodobenzene,204.01017,721.15,0.247,461.6,CC(=C)OC(C)=O,00100000001100000000000000000000010000010000000000000001000000000000000000000001000000100000000000000000000000000000000001000110
iodoform,393.73235,794.55,0.193,491.16,CC(C)CC(=O)OC(C)C,01000000001000000000000000010000010000010000000000000001001000000000010000000000100000000000000000000000001000000000000000000100
iron pentacarbonyl,195.899,607.2,0.091,376.15,CC(C)OC(C)=O,01000000001100000000000000010000010000010000000000000001001000000000010000000000000000000000000000000000000000000000000001000100
isoagatholal,304.47288,790.0,1.083,628.0,CC(C)OC(=O)C=C,01000000001000000000000000010000010000010000000001000011001000010000010000000000000000100000000000000000000001000000000000000100
isoamyl caprylate,214.34824,682.0,0.759,542.21,CC(C)O,01000000000000000000000000010000010000010000000000000000000000000000010000000000000000000000000000010000000000000000000000000000
isobutane,58.1234,407.8,0.184,261.43,CCCC(=O)OC(C)C,01000000001000000000000000111000010000110000000000000001001000000000010000000000100000000000000000000000001000000000000000000100
isobutanol,74.1228,547.78,0.585,380.81,CCCCCCCCCC(=O)OC(C)C,01000000001000000000000000111000010000110000000000000001001000000000010000000000100000000000000000000000001000000000000100000100
isobutene,56.10752,417.9,0.189,266.25,CC(C)OC=O,01000000001000000000000000010001010000000000000000000011001000000000000000000000001000000000000000000000000010000000000000000000
"isobutene, trimer",168.32256,656.77,0.548,453.15,CC(C)OC(=O)C(C)C,01000000001000000001000000010000010000010000000000000001001000000000010000000000000000000000000000000000000000000000000000000100
isobutyl 3-methylbutanoate,158.24072,614.21,0.771,441.65,CC(C)COC(C)C,01000000000000000000000000010000010000000000000000000001001010000000000000000000100000000000000000000000000000000000001000000000
isobutyl 4-methylpentanoate,172.2676,637.0,0.579,445.15,CC(C)[N+]#[C-],01000000000000000000000000010000010000001000000000000000000000000100000000001000000000100000000000000001000000000000000000000000
isobutyl acetate,116.16008,560.8,0.434,389.8,CC(C)S,01000000000000000000000000010000010000000000000000000000000000000000000000000000000000000000000000000100000010001000000000000000
isobutyl acrylate,128.17108,587.0,0.455,410.0,CC(C)OC(=O)C(C)=C,01000000001000000000000000010000010000010000000000000001101000000000010001000000000000100000000000000000000000000000000001000110
isobutyl butanoate,144.21384,611.0,0.422,430.05,CCCCCCCC(=O)OC(C)C,01000000001000000000000000111000010000110000000000000001001000000000010000000000100000000000000000000000001000000000000100000100
isobutyl ether,130.23032,562.0,0.424,395.76,CCCCC(=O)OC(C)C,01000000001000000000000000111000010000110000000000000001001000000000010000000000100000000000000000000000001000000000000100000100
isobutyl formate,102.1332,551.35,0.39,371.22,CC(C)Sc1ccccc1,01000000000000000000000000010000010000000001000000000000000000001000010000000000010000100000000000011000000000000000100000000000
isobutyl heptanoate,186.29448,652.0,0.639,481.15,CCC(=O)OC(C)C,01100000001000000000000000010000010000110000000000000001001000000000010000000000100000000000000000000000001000000000000000000100
isobutyl heptyl ketone,184.32196,658.0,0.649,491.4,CCCCCCCCCCCCCC(=O)OC(C)C,01000000001000000000000000111000010000110000000000000001001000000000010000000000100000000000000000000000001000000000000100000100
isobutyl hexanoate,172.2676,637.0,0.579,427.05,CC(C)OC=C,01000000000000000000000000010000010000000000000000000011001000000000000000000000001100100000000000000000000001000000000000000000
isobutyl isobutyrate,144.21384,602.0,0.403,420.65,CC(C)OC(C)(C)C,01000000100000000000001000010000010000000000000000000001001000000001000000000000000000000000000000000000000000000010000000000000
isobutyl isocyanate,99.1326,568.0,0.415,379.15,CC(C)N,01000000000000000011000000010000010000000000000000000000000000000100000000000000000000000000000000000000000000000000000000000000
isobutyl isocyanide,83.1332,563.17,0.397,383.15,CC(C)C1CCCCC1,01001000000000000000000000010010010000000000010000000000001000000000000000000000000000000000000000000000000000000000000000010100
isobutyl mercaptan,90.1894,559.0,0.253,361.64,CC(C)C1CCCC1,01001000000000000000000000010010010000000000010000000000001000000000000000000000000000000000000000000000000000000000000000010100
isobutyl methacrylate,142.19796,612.0,0.421,428.15,CC(C)C1CC1,01000000000000000000000000010010010000000000010000000000001000000000000000000000000000000000000000000000000000000000000000010100
isobutyl pentanoate,158.24072,629.0,0.596,452.15,CCCCCCCCCCCCCCCCCCNC(C)C,11001000000000100000000000110000010000100000000000000000000000000000000000000000100000000000000000000000000000000000000100000000
isobutyl propanoate,130.18696,592.0,0.384,409.75,c1ccc2cnccc2c1,00000000000000000000000000000000000000000000000000000000000000011001000000100000010000100000000000001000000000000000000000100001
isobutyl vinyl ether,100.16068,536.0,0.38,356.15,o1cccn1,00000000000000001001000000000000000000000000000000000000000000001000000000100000010000000000000000000000000000000000010000100000
isobutylamine,73.13808,513.73,0.363,340.88,OC(=O)CC(=C)C(O)=O,10000100001000000000000100000000000000010000000000000000000000100000000001000000100000100000000000000000000000000000000000000110
isobutylbenzene,134.22116,650.0,0.382,445.94,C=C=O,00000000001000000000000000000000001000000000000000000000000001000000000000000000000000100000000001000000000000000000000010000000
isobutylcyclohexane,140.2688,667.0,0.274,444.45,CC(O)C(O)=O,01000100001010000000000000010000010000010000000000001000000000000000000000000000000000000000000000010000000000000000000000000100
isobutylcyclopentane,126.24192,617.21,0.33,421.1,CC(O)C#N,01000000000000000000001000010000011000010000000000000000000000000000000000000000000000000100000000010000100001000000000000000000
isobutyraldehyde,72.10692,507.0,0.362,337.25,CC(=O)CCC(O)=O,00000100001000100000000000001000010000010000000000000000000000000000000001000000100000000000000000000000000000000000000001000100
isobutyric acid,88.10632,605.0,0.614,427.65,CC(=C)C1CCC(=CC1)C,00000000000000000000000000000010010000010000010000000000001100000000000000100010010000100100000000001000000000000000010001010010
isobutyronitrile,69.10632,565.0,0.338,376.76,NCCCC[C@H](N)C(O)=O,01000100001000000011000000000000000000010000000010001000010000000000000000000000100001000000000000010000000000000000000100000100
isodecanal,156.2682,657.0,0.642,470.15,Cc1cccc(Br)c1,00000000000001000000000000000001010000000000000000000000001000001000000000000000010000101000000100001000000100000000000000000000
isodecanol,158.28408,644.0,0.913,493.0,Nc1cccc(Cl)c1,00000000000000000001000000000000000000000000000001000000000000001000000000000000010000101000000000001000000100000000000010000000
isooctanol,130.23032,600.92,0.733,459.15,ClC(=O)c1cccc(Cl)c1,00000000001010000001010000000000000000010000000001000000000000001000000000000000010000101000000000001000010100000000000000000100
isopentyl 2-methylpropanoate,158.24072,640.0,0.488,441.65,[O-][N+](=O)c1cccc(Cl)c1,00000000001000000001000000000000000000000001000001000000000000001000001000010000010000101000000000001000000100000100000000100000
isopentyl acetate,130.18696,586.1,0.489,415.15,Oc1cccc(Cl)c1,00000000000000000001000000000000000000010000000001000000000000001010000000000000010000101000000000001000010100000000000000000000
isopentyl formate,116.16008,578.0,0.409,397.25,Cc1cccc(Cl)c1,00000000000000000001000000000001010000000000000001000000001000001000000000000000010000101000000000001000000100000000000000000000
isopentyl hexanoate,186.29448,652.0,0.639,498.65,Cc1cccc(O)c1,00000000000000000000000000000001010000010000000000000000001000001010000000000000010000100000000000001000010100000000000000000000
isopentyl isovalerate,172.2676,637.0,0.579,467.15,CC(C)c1cccc(C)c1,01000000000000000000000000010001010000000000000000000000001000001000000000000000010001100000000000001000000100000000000000000000
isopentyl pentanoate,172.2676,637.0,0.579,473.73,Brc1cccc(Br)c1,00000000000001000000000000000000000000000000000000000000000000001000000000000000010000101000000100001000000100000000000000000000
isopentyl propanoate,144.21384,611.0,0.462,432.65,Clc1cccc(Cl)c1,00000000000000000001000000000000000000000000000001000000000000001000000000000000010000101000000000001000000100000000000000000000
isopentylcyclohexane,154.29568,674.01,0.413,469.65,CCc1cccc(CC)c1,00000001000000000000000000000000010000100000000000000000000000001000000000000000110000100010000000001000000100000000000000000000
isophorone,138.20956,715.0,0.4,488.35,Fc1cccc(F)c1,00000010100000000000000000000000000000000000000000000000000100001000000000000000010000100000000000001000000100000000000000000000
isophorone diisocyanate,222.2872,765.0,0.666,562.0,CC(C)c1cccc(c1)C(C)C,01000000000000000000000000010000010000000000000000000000000000001000000000000000010001100000000000001000000100000000000000000000
isophthalic acid,166.13324,1007.0,1.061,753.0,CC(C)c1cccc(c1)C(C)C.O[O-],01000000000000000000000000010000010000010000000000000000000000001000000000010000010001100100000000001000000100000000000000000000
isophthaloyl chloride,203.02396,768.0,0.646,549.0,[O-][N+](=O)c1cccc(c1)[N+]([O-])=O,00000000001000000000000000000000000000000001000000000000000000001000001000010000010000100000000000001000000100000100000000100000
isopimaric acid,302.457,807.1,0.791,623.1,C=Cc1cccc(C=C)c1,00000000000000000000000000000000000000000000000000000010000000001000000000000000010000100000000000011000000101000100000000000000
isoprene,68.11852,484.0,0.158,307.21,CCc1cccc(N)c1,00000001000000000001000000000000010000100000000001000000000000001000000000000000110000100010000000001000000100000000000010000000
isopropenyl acetate,100.11732,555.5,0.355,367.15,CCc1cccc(O)c1,00000001000000000000000000000000010000110000000000000000000000001010000000000000110000100010000000001000010100000000000000000000
isopropyl 3-methylbutanoate,144.21384,599.25,0.472,415.15,CCc1cccc(C=C)c1,00000001000000000000000000000000010000100000000000000010000000001000000000000000110000100010000000011000000101000100000000000000
isopropyl acetate,102.1332,532.0,0.368,361.65,CCc1cccc(S)c1,00000001000000010000000000000000010000100000000000000000000000001000000100000000110000100010000000001100000100000000000000000000
isopropyl acrylate,114.1442,560.0,0.405,383.15,CCc1cccc(C)c1,00000001000000000000000000000001010000100000000000000000001000001000000000000000110000100010000000001000000100000000000000000000
isopropyl alcohol,60.09592,508.31,0.669,355.41,Cc1cccc(F)c1,00000010100000000000000000000001010000000000000000000000001100001000000000000000010000100000000000001000000100000000000000000000
isopropyl butanoate,130.18696,574.0,0.464,404.15,Cc1cccc(C=C)c1,00000000000000000000000000000001010000000000000000000010001000001000000000000000010000100000000000011000000101000100000000000000
isopropyl decanoate,214.34824,682.0,0.759,542.21,Cc1cccc(S)c1,00000000000000010000000000000001010000000000000000000000001000001000000100000000010000100000000000001100000100000000000000000000
isopropyl formate,88.10632,518.5,0.313,341.25,Nc1cccc(c1)[N+]([O-])=O,00000000001000000001000000000000000000000001000001000000000000001000001000010000010000100000000000001000000100000100000010100000
isopropyl isobutanoate,130.18696,584.0,0.456,393.85,Cc1cccc(c1)[N+]([O-])=O,00000000001000000000000000000001010000000001000000000000001000001000001000010000010000100000000000001000000100000100000000100000
isopropyl isobutyl ether,116.20344,537.0,0.379,371.2,Nc1cccc(N)c1,00000000000000000001000000000000000000000000000001000000000000001000000000000000010000100000000000001000000100000000000010000000
isopropyl isocyanide,69.10632,541.04,0.353,360.35,c1ccc(cc1)c2cccc(c2)c3ccccc3,00000000100000000000000000000000000000000000000000000000000000001000000000000000010000100000000000001000000100000000000000000000
isopropyl mercaptan,76.16252,517.0,0.214,325.71,Cc1ccc(N)cc1N,00000000000000100001000000000000010000000000000001000000001000000000000000000000010000100000000000001000000100010000000010000000
isopropyl methacrylate,128.17108,592.33,0.432,398.15,Cc1cccc(N)c1,00000000000000000001000000000001010000000000000001000000001000001000000000000000010000100000000000001000000100000000000010000000
isopropyl octanoate,186.29448,652.0,0.639,489.73,Cc1cccc(C)c1,00000000000000000000000000000001010000000000000000000000001000001000000000000000010000100000000000001000000100000000000000000000
isopropyl pentanoate,144.21384,602.0,0.395,436.35,OC(=O)\C=C/C(O)=O,00000100001000000000000000000001000000010000000000000010000000000000000000000000100000000000000000000000000000000000000000000100
isopropyl phenyl sulfide,152.26028,708.21,0.386,481.15,O=C1OC(=O)C=C1,00000000001000001010000000000000000101000000000000000000001000000000000000000000010000000000000000001000000000000000000000000000
isopropyl propanoate,116.16008,553.0,0.432,383.15,N#C\C=C/C#N,00000000000000000000001000000100001000000000000001000010000000000000000000000000000000000000000000000000100000000000000000000000
isopropyl tetradecanoate,270.45576,738.0,0.935,588.0,OC(=O)CC(O)=O,10000100001000000000000000000000000000010000000000000000000000000000000001000000100000000000000000000000000000000000000000000100
isopropyl vinyl ether,86.1338,505.58,0.323,328.65,N#CCC#N,00000000000000000000001000000000001000000000000000000000000000000100000000000000100000000000000000000000100000000000000000000000
isopropylamine,59.1112,471.85,0.276,304.92,CC(C)N,01000000000000000011000000010000010000000000000000000000000000000100000000000000000000000000000000000000000000000000000000000000
isopropylcyclohexane,126.24192,627.0,0.33,427.91,CC(C)C1CCCCC1,01001000000000000000000000010010010000000000010000000000001000000000000000000000000000000000000000000000000000000000000000010100
isopropylcyclopentane,112.21504,593.0,0.303,399.58,CC(C)=CC(C)=O,00000000001000000000000000000000010000010000000000000010000000000000000000000000000000000000000010000000010000000010000001000100
isopropylcyclopropane,84.16128,506.65,0.259,331.47,Cc1cc(C)cc(C)c1,00000000000000000000000000000001010000000000000000000000001000000000000000000000010000000000000000001000000100000000000000000000
isopropyloctadecylamine,311.59504,783.99,0.817,635.98,CC(O)C(C)O,01000000000000000000000000010100010000010000000000000000000000000000000000000000000000000000000000010000000000000000000000000000
isoquinoline,129.16132,803.15,0.304,516.37,CC(Br)C(C)Br,01000000000000000000000000010000010000000000000010000000000000100000000000000000000000001000000000000000000000000000000000000000
isoxazole,69.06296,590.0,0.257,367.9,CC(Cl)C(C)Cl,01000000000000000011000000010000010000000000000000000000000000000000000000000000000000000000000000000000000000000000000001000000
itaconic acid,130.10024,821.0,0.925,601.0,CC(C(C)c1ccccc1)c2ccccc2,01000000000000000000000000010000010000000000100000000000000000001000000000000000010001100000000000001000000000000000000000000000
ketene,42.03728,370.0,0.126,223.34,CC(=C)C=O,00000000001000000000000000000000010000010000001000000010000000000000000000000000000000100000000000000000000010000000000001010010
lactic acid,90.07884,675.0,1.022,490.0,CC(=C)C(O)=O,00000100001000000000000000000000010000010000000000000000100000100000000000000000000000100000000000000000000000000000000001000110
lactonitrile,71.07884,643.0,0.796,457.0,CC(=C)C#N,00000000000000000100001000000000011100010000000000000000000000000000000000000000000000100000000000000000100000000000000001000010
levulinic acid,116.11672,738.0,0.756,530.0,CCC(CC)OC,01000000100000000000000000000000010000100000000000000001000000000000000101000000100000000000000000000000000000000000000000000100
limonene,136.23704,660.0,0.313,451.15,CCCC(C)OC,01000000000000000000000000110000110000100000000000000001000000000000000101000000100000000000000000010000000000000000000000000000
lysine,146.18944,821.0,1.013,615.0,CCC=C(C)C(=O)OC,10000000001000000000000000000000010000110000001000000011000000000000000001000000100000001000000100000000000000000000000001000100
m-bromotoluene,171.03658,699.0,0.318,456.85,CCC(C)COC,01000000100000000000000000010000010000100000000000000001000000000000000001000000100000010000000000000000000001000000001000000000
m-chloroaniline,127.57308,751.0,0.42,501.65,CCC(C)C(=O)OC,11000000101000000001000000010000010000110000000000000001000000000000000001000000100000000000000010000000000000000000000000000100
m-chlorobenzoyl chloride,175.01356,724.0,0.454,498.0,COC(=O)CC=C,10000000001000000000000000000000010000010000100000000011000000010000000001000000100000100000000000000000001001000000000000000100
m-chloronitrobenzene,157.556,742.0,0.492,508.75,CCC=CCC(=O)OC,10000000001000000000000000000000010000110000001000000011000000010000000001001000100000000000000000000000001000000000000000000100
m-chlorophenol,128.5578,729.0,0.486,487.0,COC(=O)C=C(C)C,10000000001000000000000000000000010000010000000001000011000000000000000001000000000000000000000010000000010000000000000001000100
m-chlorotoluene,126.58528,660.18,0.318,435.45,COC(=O)CC(C)=CC,10000000001000000000000000000000010000010000000000100011000000000000000001001000100000000000000000000000001000000000000001000100
m-cresol,108.13992,705.85,0.448,475.43,COCCC(C)C,01000000000001000000000000010000010000000000000000000001000000000000000001000000100000000000000000010000000001000000000000000000
m-cymene,134.22116,649.0,0.378,448.23,COC(C)=O,10000000001100000000000000000000010000010000000000000001000000000000000001000000000000000000000000000000000000000000000001000100
m-dibromobenzene,235.90576,761.0,0.293,491.15,COC(=O)CC(C)=O,10000000001000100000000000000000010000010000000000000001000000000000000001000000100000000000000000000000001000000000000001000100
m-dichlorobenzene,147.00316,683.95,0.279,446.23,COC(=O)C=C,10000000001000000000000000000000010000010000000001000011000000010000000001000000000000100000000000000000000001000000000000000100
m-diethylbenzene,134.22116,663.0,0.354,454.29,CO,00010000000000000000000000000000010000010000000000000000000000000000000000000000000000000000000000000000000000000000000000000000
m-difluorobenzene,114.0945664,552.94,0.32,363.66,COC(=O)c1ccccc1,10000000001000000100000000000000010000010000000000000001000000001000000001000000010000100000000000001000010000000000000000000100
m-diisopropylbenzene,162.27492,684.0,0.359,476.33,CBr,00000000000000000000000000000010010000000000000000000000000000000000000000000000000000001000000000000000000000000000000000000000
m-diisopropylbenzene hydroperoxide,194.27372,812.0,0.963,620.0,CCCC(=O)OC,10000000001000000000000000101000010000110000000000000001000000000000000001000000100000000000000000000000001000000000000000000100
m-dinitrobenzene,168.10884,808.0,0.667,575.5,CCCCOC,00000000000001000000000000100000010000100000000000000001000000000000000001000000100000000000000000000000000001000000000100000000
m-divinylbenzene,130.1894,692.0,0.373,472.65,CCCCSC,00000000001000000000001000100010010000100000000000000000000000000000000000000000100000000000000000000000000000000000100100000000