name,molweight,critical temperature (K),acentric factor,boiling point (K),SMILES,ECFP_Bits
"1,4-hexadiene",82.1454,510.0,0.28,338.15,CCCC(Br)CCCCBr,01001000000000000000000000100000010000100000000000000000000000100000000000000000100000001000000000010000000000010000000100010000
"1,4-nonadecanediol",300.5254,870.97,1.074,711.15,BrCCCCCBr,00000000000000000000000000000000000000000000000000000000000000000000000000000000100000001000000000000000000000010000000100010000
"1,4-pentadiene",68.11852,479.0,0.084,299.11,CC(C)(CCCl)CCCl,00000000100000000001000000001000010000000000000010000000000000000000000000010000100001000000000000000000000000000010000000000000
"1,4a-dimethyl-cis-decahydronaphthalene",166.30668,707.09,0.349,493.15,ClCCCCCCl,00000000000000000001000000000000000000000000000010000000000000000000000000000000100001000000000000000000000000000000000100000000
"1,4a-dimethyl-trans-decahydronaphthalene",166.30668,697.05,0.349,486.15,C1CCC(CC1)CCCCCC2CCCCC2,00001000000000000000000000000110000000000000010000000000000000001000000000000000100000000000000000000000000000000000000100010000
"1,5,5-trimethylcyclopentene",110.19916,602.71,0.315,382.15,FCCCCCF,00000000100000000000000000000000000000000000000000000000000000000000000000000000100001010000000000000000000000000000000100000000
"1,5,9-cyclododecatriene",162.27492,745.0,0.403,514.65,ICCCCCI,00000000000000000000010000000000000000000000000000000000000000001000000000000000100000010000000000000000000000000000000100000000
"1,5-cyclooctadiene",108.18328,645.0,0.286,423.27,O=C=Nc1cccc2c(cccc12)N=C=O,00000000001000000010000000000000001000000000000000000000000000001000000010000100010001100000000000001000000000000000000010010000
"1,5-diamino-2-methylpentane",116.20652,663.0,0.65,466.15,CC(C)C1CC=C(C)C1C,01000000000000000000000000010110010000000001000000000010001000000000000000000000010000100000000000001000000000000000010000010100
"1,5-dibromo-3-methylpentane",243.96928,684.21,0.526,486.03,CC1CCC=C(C)C1,00000000000000000000000000000110010000000000010000000000001100000000000000000000010000000000000000001001000000000000010000011000
"1,5-dibromoheptane",257.99616,700.05,0.571,510.82,CC1CCC=C1C,00000000000000000000000000000110010000000011010000000000001000000000000000000000010000000000000000001000000000000000010000010000
"1,5-dibromohexane",243.96928,684.21,0.526,486.03,Cc1cccc2c(C)cccc12,00000000000000000000000000000000010000000000000000000000001000001000000000000100010000100000000000001000000000010000000000000000
"1,5-dibromooctane",272.02304,716.02,0.616,524.48,C(CCc1ccccc1)CCc2ccccc2,00000000000000000000000000000000000000000000000000000000000000001000000000000000110000100011000000001000000000000000000100000000
"1,5-dibromopentane",229.9424,722.02,0.513,495.45,C=CCCC=C,00000000000000000100000000000000000000000000100000000010000000000000000000000000100000100000000000000000000001000000000000000000
"1,5-dichloro-3,3-dimethylpentane",169.09356,654.02,0.442,454.15,NCCCCCN,00000000000000000001000000000000000000000000000010000000000000000000000000000000100001000000000000000000000000000000000100000000
"1,5-dichloropentane",141.0398,668.0,0.377,456.16,Cc1cc2cccc(C)c2cc1C,00000000000000000000000000000000010000000000000000000000001000011000000000000100010000100000000000001000000100010000000000000000
"1,5-dicyclohexylpentane",236.44108,776.31,0.551,598.15,BrCCCCCCBr,00000000000000000000000000000000000000000000000000000000000000000000000000000000100000001000000000000000000000010000000100010000
"1,5-difluoropentane",108.1312064,554.4,0.381,378.65,ClCCCCCCCl,00000000000000000001000000000000000000000000000010000000000000000000000000000000100001000000000000000000000000000000000100000000
"1,5-diiodopentane",323.94334,739.07,0.362,500.08,CCc1ccc2c(CC)cccc2c1,00000001000000000000000000000000010000100000000000000000000000011000010000000100110000100010000000001000000100000000000000000000
"1,5-diisocyanatonaphthalene",210.19192,818.0,0.73,603.0,ICCCCCCI,00000000000000000000010000000000000000000000000000000000000000001000000000000000100000010000000000000000000000000000000100000000
"1,5-dimethyl-4-isopropylcyclopentene",138.25292,647.47,0.403,436.15,CC(C)c1ccc(C)c2ccc(C)cc12,01000000000000000000000000010001010000000000000000000000001000000000000000000100010000100000000000001000000101010000000000000000
"1,5-dimethylcyclohexene",110.19916,606.0,0.26,401.15,CC1CCCC=C1C,00001000000000000000000000000110010000000011010000000000001000000000000000000000010000000000000000001000000000000000010000010000
"1,5-dimethylcyclopentene",96.17228,573.63,0.245,375.15,Cc1ccc2c(C)cccc2c1,00000000000000000000000000000001010000000000000000000000001000011000000000000100010000100000000000001000000100010000000000000000
"1,5-dimethylnaphthalene",156.22728,773.47,0.443,538.16,BrCCCCCCCBr,00000000000000000000000000000000000000000000000000000000000000000000000000000000100000001000000000000000000000010000000100010000
"1,5-diphenylpentane",224.3458,786.4,0.587,600.15,ClCCCCCCCCl,00000000000000000001000000000000000000000000000010000000000000000000000000000000100001000000000000000000000000000000000100000000
"1,5-hexadiene",82.1454,507.0,0.232,332.61,CCc1ccc2cccc(CC)c2c1,00000001000000000000000000000000010000100000000000000000000000011000010000000100110000100010000000001000000100000000000000000000
"1,5-pentanediamine",102.17964,637.67,0.591,452.15,Cc1ccc2cccc(C)c2c1,00000000000000000000000000000001010000000000000000000000001000011000000000000100010000100000000000001000000100010000000000000000
"1,6,7-trimethylnaphthalene",170.25416,779.72,0.492,553.15,BrCCCCCCCCBr,00000000000000000000000000000000000000000000000000000000000000000000000000000000100000001000000000000000000000010000000100010000
"1,6-dibromohexane",243.96928,684.21,0.526,518.65,ClCCCCCCCCCl,00000000000000000001000000000000000000000000000010000000000000000000000000000000100001000000000000000000000000000000000100000000
"1,6-dichlorohexane",155.06668,633.09,0.397,477.15,ICCCCCCCCI,00000000000000000000010000000000000000000000000000000000000000001000000000000000100000010000000000000000000000000000000100000000
"1,6-diethylnaphthalene",184.28104,812.35,0.537,585.41,Cc1cccc2cccc(C)c12,00000000000000000000000000000000010000000000000000000000001000011000000000000000010000100000000000001000000000010000000000000000
"1,6-diiodohexane",337.97022,762.6,0.376,522.52,BrCCCCCCCCCBr,00000000000000000000000000000000000000000000000000000000000000000000000000000000100000001000000000000000000000010000000100010000
"1,6-dimethyl-4-isopropylnaphthalene",198.30792,795.4,0.575,567.15,ClCCCCCCCCCCl,00000000000000000001000000000000000000000000000010000000000000000000000000000000100001000000000000000000000000000000000100000000
"1,6-dimethylcyclohexene",110.19916,610.68,0.26,404.25,CC1CCCC=C1C,00001000000000000000000000000110010000000011010000000000001000000000000000000000010000000000000000001000000000000000010000010000
"1,6-dimethylnaphthalene",156.22728,770.6,0.443,536.16,CC1=CC2=CC=CC(=C2C=C1)C,00000000000000000000000000000001010000000000000000000000001000011000000000000100010000100000000000001000000100010000000000000000
"1,7-dibromoheptane",257.99616,700.05,0.571,536.15,C(CCCBr)CCCBr,00000000000000000000000000000000000000000000000000000000000000000000000000000000100000001000000000000000000000010000000100010000
"1,7-dichloroheptane",169.09356,654.02,0.442,454.15,C(CCCCl)CCCCl,00000000000000000001000000000000000000000000000010000000000000000000000000000000100001000000000000000000000000000000000100000000
"1,7-diethylnaphthalene",184.28104,812.35,0.537,585.41,CCC1=CC2=C(C=CC=C2CC)C=C1,00000001000000000000000000000000010000100000000000000000000000011000010000000100110000100010000000001000000100000000000000000000
"1,7-dimethylnaphthalene",156.22728,770.6,0.443,536.16,CC1=CC2=C(C=CC=C2C=C1)C,00000000000000000000000000000001010000000000000000000000001000011000000000000100010000100000000000001000000100010000000000000000
"1,8-dibromooctane",272.02304,716.02,0.616,544.15,C(CCCCBr)CCCBr,00000000000000000000000000000000000000000000000000000000000000000000000000000000100000001000000000000000000000010000000100010000
"1,8-dichlorooctane",183.12044,672.06,0.485,514.15,C(CCCCCl)CCCCl,00000000000000000001000000000000000000000000000010000000000000000000000000000000100001000000000000000000000000000000000100000000
"1,8-diiodooctane",366.02398,799.06,0.465,568.28,C(CCCCI)CCCI,00000000000000000000010000000000000000000000000000000000000000001000000000000000100000010000000000000000000000000000000100000000
"1,8-dimethylnaphthalene",156.22728,792.0,0.395,543.15,C[C@H]1CCC[C@H](C)[C@H]1C,00001000000000000000000000000110010000000000010000000000000000000001000000000000000000000000010000000000000000000000000000010000
"1,9-dibromononane",286.04992,729.44,0.659,558.15,C(CCCCBr)CCCCBr,00000000000000000000000000000000000000000000000000000000000000000000000000000000100000001000000000000000000000010000000100010000
"1,9-dichlorononane",197.14732,688.79,0.528,533.15,C(CCCCCl)CCCCCl,00000000000000000001000000000000000000000000000010000000000000000000000000000000100001000000000000000000000000000000000100000000
"1,cis-2,cis-3,cis-4-tetramethylcyclopentane",126.24192,613.22,0.284,418.15,C[C@@H]1CC[C@@H](C)[C@@H](C)C1,00000000000010000000000000000110010000000000010000000000000000000001000000000000000000000000000000000000000000000000000000011000
"1,cis-2,cis-3,trans-4-tetramethylcyclopentane",126.24192,602.95,0.284,411.15,CC1C[C@H](C)[C@H](C)C1,00000000000010000000000000000110010000000000000000000000000000000001000000000000000000000000000000000000000000000000000000011000
"1,cis-2,cis-3-trimethylcyclohexane",126.24192,629.26,0.28,426.15,CC1CCCC(C1C)C,00001000000000000000000000000110010000000000010000000000000000000001000000000000000000000000010000000000000000000000000000010000
"1,cis-2,cis-3-trimethylcyclopentane",112.21504,591.57,0.265,396.15,CC1CCC(C1C)C,00000000000000000000000000000110010000000000010000000000000000000001000000000000000000000000010000000000000000000000000000010000
"1,cis-2,trans-3-trimethylcyclohexane",126.24192,626.3,0.28,424.15,C[C@@H]1C[C@@H]1C,00000000000010000000000000000110010000000000000000000000000000000001000000000000000000000000000000000000000000000000000000010000
"1,cis-2,trans-4-trimethylcyclohexane",126.24192,621.87,0.28,421.15,C[C@@H]1CC[C@H]([C@H](C1)C)C,00000000000010000000000000000110010000000000010000000000000000000001000000000000000000000000000000000000000000000000000000011000
"1,cis-2,trans-4-trimethylcyclopentane",112.21504,582.21,0.265,389.88,C[C@@H]1CC(C[C@@H]1C)C,00000000000010000000000000000110010000000000000000000000000000000001000000000000000000000000000000000000000000000000000000011000
"1,cis-2-dimethyl-cis-4-ethylcyclopentane",126.24192,614.43,0.309,420.15,CC\C=C/C=C,00000000000000001000000000000000010000100000001010000010000000000000000000001000100000100000000000000000000001000000000000000000
"1,cis-2-dimethylcyclopropane",70.1344,485.69,0.215,310.18,C[C@@H]1C[C@@H]1C,00000000000010000000000000000110010000000000000000000000000000000001000000000000000000000000000000000000000000000000000000010000
"1,cis-3-hexadiene",82.1454,526.7,0.266,346.15,CC/C=C\C=C,00000000000000001000000000000000010000100000001010000010000000000000000000001000100000100000000000000000000001000000000000000000
"1,cis-4-hexadiene",82.1454,514.53,0.266,338.15,C/C=C\CC=C,00000000000000000000000000000000010000000000100000000010000000000000000000001000110000100000000000000000000001000000000000000000
"1,trans-2,cis-3-trimethylcyclohexane",126.24192,615.97,0.28,417.15,C[C@@H]1CCC[C@@H](C1C)C,00001000000000000000000000000110010000000000010000000000000000000001000000000000000000000000010000000000000000000000000000010000
"1,trans-2,cis-3-trimethylcyclopentane",112.21504,572.46,0.265,383.35,C[C@H]1CC[C@@H](C1C)C,00000000000000000000000000000110010000000000010000000000000000000001000000000000000000000000010000000000000000000000000000010000
"1,trans-2,cis-4-trimethylcyclohexane",126.24192,617.44,0.28,418.15,C[C@@H]1CC[C@H]([C@@H](C1)C)C,00000000000010000000000000000110010000000000010000000000000000000001000000000000000000000000000000000000000000000000000000011000
"1,trans-2-dimethyl-1-ethylcyclopentane",126.24192,616.85,0.296,417.15,CC/C=C/C=C,00000000000000001000000000000000010000100000001010000010000000000000000000001000100000100000000000000000000001000000000000000000
"1,trans-2-dimethyl-cis-4-ethylcyclopentane",126.24192,604.2,0.309,413.15,CC(C)OCC(C)O,01000000000000000100000000010000010000010000000000000001001010000000000000000000100000000000000000010000000000000000001000000000
"1,trans-2-dimethyl-trans-3-ethylcyclopentane",126.24192,611.51,0.309,418.15,CCCCOC(C)C,01000000000001000000000000110000010000100000000000000001001010000000000000000000100000000000000000000000000000000000000100000000
"1,trans-2-dimethylcyclobutane",84.16128,513.5,0.231,333.15,CC(=O)c1ccccc1O,00000000001000000000000000001000010000010000000000000000000000001010000100000000010000100000000000001000000000000000000001000100
"1,trans-2-dimethylcyclopropane",70.1344,471.88,0.215,301.36,COc1cc(ccc1O)C(C)=O,10000000001000000000000000001000010000010000000000100001000000000010000101000000010000100000000000001000010100000000000001000100
"1,trans-3-diethylcyclopentane",126.24192,617.12,0.334,423.15,CC(=O)c1ccc(O)cc1,00000000001000000000000000001000010000010000000000000000000000000010000000000000010000100000000000001000010000000000000001000100
"1,trans-3-dimethyl-1-ethylcyclopentane",126.24192,605.02,0.296,409.15,CC(O)CN(C)C,01000000000110000100000000010000010000010000000000000000000000000000100000000000100000000000000000010000000000000100000000000000
"1,trans-3-dimethyl-cis-2-ethylcyclopentane",126.24192,610.05,0.309,417.15,CCC(C)(C)CN,00000000100000000001000000000000010000110000000000000000000000000000000000010000100001000000000000000000001000000010000000000000
"1,trans-3-dimethyl-cis-4-ethylcyclopentane",126.24192,678.78,0.309,412.0,CC(C)C(C)CN,01000000000000000001000000010000010000000000000000000000000000000000000000000000100001000000000000000000000001000000010001000000
"1,trans-3-dimethyl-trans-4-ethylcyclopentane",126.24192,611.51,0.309,418.15,CCC(O)CN,01000000100000000001000000000000010000110000000000000000000000000000000000000000100001000000000000010000000000000000011000000000
"1,trans-3-dimethylcyclobutane",84.16128,509.64,0.231,330.65,CCC(CC)CN,01000000100010000001000000000000010000100000000000000000000000000000000000000000100001000000000000000000000000000000010000000000
"1,trans-3-hexadiene",82.1454,526.7,0.266,346.15,CC(C)(O)CN,00000000100000000001000000000000010000010000000000000000000000000000000000000000100001010000000000000000001000000010100000000000
"1,trans-4-hexadiene",82.1454,514.53,0.266,338.15,CCCC(C)CN,01000000000000000001000000110000010000100000000000000000000000000000000000000000100001010000000000010000000000000000010000000000
1-(1-methylethoxy)-2-propanol,118.17596,562.0,0.768,411.15,CC(O)CN,01000000000000000101000000010000010000010000000000000000000000000000000000000000100001000000000000010000000000000000010000000000
1-(1-methylethoxy)butane,116.20344,549.0,0.403,382.3,CC(C)(C)CCN,00000000100000000001000000001000010000000000000010000000000000000000000000000000100001000000000000000100000000000010000000000000
1-(2-hydroxyphenyl)ethanone,136.15032,707.0,0.638,494.7,CCC(C)CCN,01000000100000000001000000010000010000100000000010000000000000000000000000000000100001010000000000010000000000000000000000000000
1-(4-hydroxy-3-methoxyphenyl)ethanone,166.1766,786.0,0.786,570.65,CC(C)CCCN,01000000000000000001000000010000010000000000000010000001000000000000000000000000100001000000000000010000000000000000000100000000
1-(4-hydroxyphenyl)ethanone,136.15032,860.0,0.641,601.65,CC(N)O,01001000000000000011000000010000010000010000000000000000000000000000000000000000000000000000000000010000000000000000000000000000
1-(dimethylamino)-2-propanol,103.16436,626.41,0.841,397.65,CCCC=CBr,00000000000000000100010000100000010000100000000000000010000000000000000000001000100000001000000000000000000000000000000000000000
"1-amino-2,3-dimethylbutane",101.19184,552.72,0.419,378.15,CC(C)CCCCCCCCCCCBr,01000000000000000000000000010000010000000000000000000001000000000000000000000000100000001000000000010000000000010000000100010000
1-amino-2-butanol,89.13748,571.82,0.711,442.05,CCC(C)(C)CBr,00000000100000000000100000000000010000110000000000000000000000000000000000010000100000001000000000000000000000000010000000010000
1-amino-2-ethylbutane,101.19184,592.91,0.451,408.77,CC(C)C(C)CBr,01000000000000000000000000010000010000000000000000000000000000000000000000000000100000001001000000000000000001000000000001010000
1-amino-2-methyl-2-propanol,89.13748,571.82,0.711,424.05,CC=CCBr,00000000000000000000000000000000010000000000000000000010000000000000000000001000100000001000000000000000000000000001000000010000
1-amino-2-methylpentane,101.19184,580.19,0.451,400.0,CCCCCCCC=CCBr,00000000000000000100000000100000010000100000000000000010000000000000000000001000100000001000000000000000000000000001000100010000
1-amino-2-propanol,75.1106,614.0,0.787,432.61,CCC(CC)CBr,01000000100010000000000000000000010000100000000000000000000000000000000000000000100000001001000000000000000000000000000000010000
"1-amino-3,3-dimethylbutane",101.19184,598.02,0.387,405.98,CC(C)=CBr,00000000000001000000010000000000010000010000000000000010000000000000000000000000000000001000000000000000010000000000000001000000
1-amino-3-methylpentane,101.19184,580.19,0.451,395.15,CCC(C)CCN,01000000100000000001000000010000010000100000000010000000000000000000000000000000100001010000000000010000000000000000000000000000
1-aminoethanol,61.08372,638.0,0.797,444.15,CCC(C)CBr,01000000100000000000000000010000010000100000000000000000000000000000000000000000100000011001000000000000000000000000000000010000
1-bromo-1-pentene,149.03046,586.22,0.334,392.15,CCCC(C)CBr,01000000000000000000000000110000010000100000000000000000000000000000000000000000100000011001000000010000000000000000000000010000
1-bromo-1-propene; (cis+trans),120.9767,526.38,0.265,333.65,CC(C)CBr,01000000000000000000000000010000010000000000000000000001000000000000000000000000100000001001000000000000000000000000000000010000
1-bromo-12-methyltridecane,277.28826,750.56,0.758,580.15,CCC=CCBr,00000000000000000000000000000000010000100000001000000010000000000000000000001000100000001000000000000000000000000001000000010000
"1-bromo-2,2-dimethylbutane",165.07322,601.65,0.404,410.0,CC(C)(C)CCBr,00000000100000000000000000001000010000000000000000000000000000000000000000000000100000001000000000000100000000010010000000010000
"1-bromo-2,3-dimethylbutane",165.07322,616.11,0.341,413.15,CC(C)=CCBr,00000000000000000000000000000000010000010000000000000010000000000000000000000000100000001000000100000000010000000001000001010000
1-bromo-2-butene,135.00358,568.74,0.301,377.65,CC(C)CCBr,01000000000000000000000000010000010000000000000000000001000000000000000000000000100000001000000000010000000000010000000000010000
1-bromo-2-decene,219.16486,683.71,0.579,498.15,CCC(C)CCBr,01000000100000000000000000010000010000100000000000000000000000000000000000000000100000011000000000010000000000010000000000010000
1-bromo-2-ethylbutane,165.07322,626.3,0.311,416.45,CC(C)CCCBr,01000000000000000000000000010000010000000000000000000001000000000000000000000000100000001000000000010000000000010000000100010000
1-bromo-2-methyl-1-propene,135.00358,565.96,0.286,364.15,C\C=C/CBr,00000000000000000000000000000000010000000000000000000010000000000000000000001000100000001000000000000000000000000001000000010000
1-bromo-2-methyl-cis-2-butene,149.03046,602.84,0.331,397.15,CC\C=C/CBr,00000000000000000000000000000000010000100000001000000010000000000000000000001000100000001000000000000000000000000001000000010000
1-bromo-2-methyl-trans-2-butene,149.03046,602.84,0.331,397.15,C/C=C/CBr,00000000000000000000000000000000010000000000000000000010000000000000000000001000100000001000000000000000000000000001000000010000