name,molweight,critical temperature (K),acentric factor,boiling point (K),SMILES,ECFP_Bits
1-phenyl-2-propanol,136.19368,678.0,0.75,493.15,CCCc1cccc2ccccc12,00000000000000000000000000100000010000100000000000000000000000011000010000000100110000100001000000001000000000000000000000000000
1-phenyl-3-methylbutane,148.24804,676.37,0.413,472.05,CCC(C)c1cccc2ccccc12,01000000100000000000000000010000010000100000000000000000000000011000000000000100110000100000000000001000000001000000001000000000
1-phenylethanol,122.1668,668.0,0.706,477.15,CC(O)COC(C)(C)C,01000000100000000100000000010000010000010000000000000001000000001001000000000000100000000000000000010000000000000010001000000000
1-phenylhexadecane,302.54372,818.0,0.9,651.15,Cc1cc(C)cc(c1)C(C)(C)C,00000000110000000000000000000001010000000000000000000000001100000000000000000000010000000000000000001000000100000010000000000000
1-phenylindene,192.26028,865.0,0.47,610.0,CC(C)(C)c1cccc2ccccc12,00000000100000000000000000000000010100000000000000000000000100011000000000000100010000100000000000001000000000000010000000000000
1-phenylnaphthalene,204.27128,849.0,0.531,607.15,CCCCCCCCCCCCCCCCCCCCCCC=C,00000000000000000100000000100000010000100000100000000010000000000000000000000000100000100000000000000000000001000000000100000000
1-phenyltetradecane,274.48996,800.0,0.813,627.15,CCCCCCCCCCCCCCCCCCCCCCC#C,00000000000000000001000000100100011000100000000000000000000000000000000000000010100000000000000000000000000000000000000100000000
1-piperazineethanol,130.19004,711.0,0.833,519.15,CCCCCCCCCCCCCCS,00000000000010000000000000100000010000100000000000010000000000000000000000000000100000000000000000000100000000000000000100000000
1-propenylbenzene,118.1784,656.71,0.321,448.65,CCCCCCCCCCCCCCO,00000000000000000000000000100000010000110000000000000000000000000000000000000000100000000100001000000000000000000000000100000000
1-propoxy-2-propanol,118.17596,573.0,0.8,421.85,CCCCCCCCCCCCC=C,00000000000000000100000000100000010000100000100000000010000000000000000000000000100000100000000000000000000001000000000100000000
"1-propyl-[1,2,3,4-tetrahydronaphthalene]",174.28592,745.97,0.468,529.55,CCCCCCCCCCCCCCC1=CCCC1,00001000000000000000000000100010010000100000000000000000000000000000000000100000110000000001000000001000000000000000010100010000
1-propylcyclopentene,110.19916,602.71,0.315,404.35,CCCCCCCCCCCCC#C,00000000000000000001000000100100011000100000000000000000000000000000000000000010100000000000000000000000000000000000000100000000
1-propylnaphthalene,170.25416,782.0,0.455,545.96,CCCCCCCCCCCCCCCCCCCCCC=C,00000000000000000100000000100000010000100000100000000010000000000000000000000000100000100000000000000000000001000000000100000000
1-sec-butylnaphthalene,184.28104,818.49,0.508,575.0,CCCCCCCCCCCCCCCCCCCCCC#C,00000000000000000001000000100100011000100000000000000000000000000000000000000010100000000000000000000000000000000000000100000000
1-tert-butoxy-2-propanol,132.20284,567.0,0.774,417.15,CCCCCCCCCCCCC=O,00000000001000000100000000100000010000100000000000000010000000000000000000000000100000000000000000000000100010000000000100000000
"1-tert-butyl-3,5-dimethylbenzene",162.27492,697.15,0.437,480.15,CCCCCCCCCCCCCS,00000000000010000000000000100000010000100000000000010000000000000000000000000000100000000000000000000100000000000000000100000000
1-tert-butylnaphthalene,184.28104,781.33,0.445,551.45,CCCCCCCCCCCCCO,00000000000000000000000000100000010000110000000000000000000000000000000000000000100000000100001000000000000000000000000100000000
1-tetracosene,336.64512,814.11,0.721,663.15,CCCCCCCCCCCC=C,00000000000000000100000000100000010000100000100000000010000000000000000000000000100000100000000000000000000001000000000100000000
1-tetracosyne,334.62924,815.11,0.746,662.15,CCCCCCCCCCCCCC1=CCCC1,00001000000000000000000000100010010000100000000000000000000000000000000000100000110000000001000000001000000000000000010100010000
1-tetradecanethiol,230.4582,753.8,0.707,579.36,CCCCCCCCCCCC#C,00000000000000000001000000100100011000100000000000000000000000000000000000000010100000000000000000000000000000000000000100000000
1-tetradecanol,214.3916,747.0,0.743,568.8,CCCCCCCCCCCS,00000000000010000000000000100000010000100000000000010000000000000000000000000000100000000000000000000100000000000000000100000000
1-tetradecene,196.37632,692.0,0.645,524.25,CCCCCCCCCCCO,00000000000000000000000000100000010000110000000000000000000000000000000000000000100000000100001000000000000000000000000100000000
1-tetradecylcyclopentene,264.49484,757.98,0.73,596.15,CCCCCCCCCC=C,00000000000000000100000000100000010000100000100000000010000000000000000000000000100000100000000000000000000001000000000100000000
1-tetradecyne,194.36044,689.9,0.665,525.15,CCCCCCCCCCCC1=CCCC1,00001000000000000000000000100010010000100000000000000000000000000000000000100000110000000001000000001000000000000000010100010000
1-tricosene,322.61824,802.72,0.742,652.15,CCCCCCCCCCCc1cccc2ccccc12,00000000000000000000000000100000010000100000000000000000000000011000010000000100110000100001000000001000000000000000000100000000
1-tricosyne,320.60236,804.42,0.759,651.15,CCCCCCCCCC#C,00000000000000000001000000100100011000100000000000000000000000000000000000000010100000000000000000000000000000000000000100000000
1-tridecanal,198.34884,724.0,0.716,540.15,CCCCCCCCCC(=O)CCCCCCCCC,00000000001000000000000010101000010000110000000000000000000000000000000000000000100000000000000000000000000000000000000100000100
1-tridecanethiol,216.43132,742.13,0.673,563.96,BrCCCCCCCCCC=C,00000000000000000100000000000000000000000000100000000010000000000000000000000000100000101000000000000000000001010000000100010000
1-tridecanol,200.36472,734.0,0.712,553.6,CCCCCCCCCCC(CCCCCCCCCC)c1ccccc1,01000000000000000000000000100000010000100000000000000000000000001000000000000000110001100000000000011000100000000000000100000000
1-tridecene,182.34944,675.0,0.606,505.93,CC(C)CCCCCCCCCCCO,01000000000000000000000000010000010000010000000000000001000000000000000000000000100000000100001000010000000000000000000100000000
1-tridecylcyclopentene,250.46796,749.34,0.706,584.15,CCCCC(C)CCCCCCCCCCCCC(O)=O,01000100001000000000000000111000010000110000000000000000000000000000000001000000100000010000000000010000000000000000000100000100
1-tridecyne,180.33356,684.11,0.553,507.16,CC(C)CCCCCCCCCCCCCCCC(O)=O,01000100001000000000000000011000010000010000000000000001000000000000000001000000100000000000000000010000000000000000000100000100
1-undecanethiol,188.37756,710.0,0.639,530.55,[nH]1cccn1,00000000000000000000000000000000000000000000000000000001000000001000000000100000010000000010000001100000000000000000000000100000
1-undecanol,172.31096,703.6,0.625,518.15,CCCCCCCCCCCO,00000000000000000000000000100000010000110000000000000000000000000000000000000000100000000100001000000000000000000000000100000000
1-undecene,154.29568,639.0,0.517,465.82,CCCCCCCCCC=C,00000000000000000100000000100000010000100000100000000010000000000000000000000000100000100000000000000000000001000000000100000000
1-undecylcyclopentene,222.4142,729.7,0.646,557.15,CCCCCCCCCCCC1=CCCC1,00001000000000000000000000100010010000100000000000000000000000000000000000100000110000000001000000001000000000000000010100010000
1-undecylnaphthalene,282.4692,846.34,0.787,664.15,CCCCCCCCCCCC1=CC=CC2=CC=CC=C21,00000000000000000000000000100000010000100000000000000000000000011000010000000100110000100001000000001000000000000000000100000000
1-undecyne,152.2798,650.99,0.47,468.16,CCCCCCCCCC#C,00000000000000000001000000100100011000100000000000000000000000000000000000000010100000000000000000000000000000000000000100000000
10-nonadecanone,282.51012,766.51,0.843,619.65,CCCCCCCCCC(=O)CCCCCCCCC,00000000001000000000000010101000010000110000000000000000000000000000000000000000100000000000000000000000000000000000000100000100
11-bromo-1-undecene,233.19174,699.36,0.621,517.15,C=CCCCCCCCCCBr,00000000000000000100000000000000000000000000100000000010000000000000000000000000100000101000000000000000000001010000000100010000
11-phenylheneicosane,372.67812,860.93,0.733,702.15,S=C1Nc2ccccc2S1,00000000000000000000000000000000001100000000000000000100100000001000000000000000010000100010000001001000000000000000010100000000
12-methyl-1-tridecanol,214.3916,736.2,0.686,552.35,Cc1ccccc1c2ccccc2C,00000000000000000000000000000000010000000000000000000000001000001000000000000000010000100000000010001000000000010000000000000000
14-methyloctadecanoic acid,298.50952,810.0,1.07,690.66,SCCOCCS,00000000000011000000000000000000000000000000000000010001000000000000000010000000100000000000000000000100000000000000000000000000
17-methyloctadecanoic acid,298.50952,810.0,1.07,690.66,CCC(C)(C)C(C)(C)C(C)(C)C,00000000100000000000000000000000010000110000000000000000000001010000000000000000100000000000000001000000000000000010000000000000
1H-pyrazole,68.07824,734.0,0.287,460.15,CC(C)(C)C(C)(C)C(C)(C)C,00000000100000000000000000000000010000000000000000000000000001000000000000000000000000000000000001000000000000000010000000000000
"2',2""-dimethyldiphenylmethane",196.29204,792.88,0.521,570.15,CC(C)C(C)C(C)(C)C(C)(C)C,01000000100001000000000000010000010000000000000000000100000000000000000000000000000000000000000001000000000001000010000000000000
"2',3""-dimethyldiphenylmethane",196.29204,790.1,0.521,568.15,CCCC(C)C(C)(C)C(C)(C)C,01000100100000000000000000110000010000100000000000000100000000000000000000000000100000000000000001010000000000000010000000000000
"2',3'-dimethyldiphenylmethane",196.29204,792.88,0.521,570.15,CCC(C)C(C)(C)C(C)(C)C,01000100100000000000000000010000010000100000000000000100000000000000000000000000100000000000000001000000000000000010000000000000
"2',4""-dimethyldiphenylmethane",196.29204,794.27,0.521,571.15,CC(C)C(C)(C)C(C)(C)C,01000000100000000000000000010000010000000000000000000100000000000000000000000000000000000000000001000001000000000010000000000000
"2',4'-dimethyldiphenylmethane",196.29204,791.49,0.521,569.15,CC(C)(C)CC(C)(C)C(C)(C)C,00000000100000000000000000000000010000000000000000000000000000010000000000000000100000000000000001000100000000000010001000000000
"2',5'-dimethyldiphenylmethane",196.29204,790.1,0.521,568.15,CCC(C)CC(C)(C)C(C)(C)C,01000000100000000000000000010000010000100000000000000000010000010000000000000000100000010000000001000000000000000010000000000000
"2',6'-dimethyldiphenylmethane",196.29204,792.88,0.521,570.15,CC(C)CC(C)(C)C(C)(C)C,01000000100000000000000000010000010000000000000000000001010000010000000000000000100000000000000001000000000000000010000000000000
2(3H)-benzothiazolethione,167.25544,749.0,0.332,496.15,CC(C)CCC(C)(C)C(C)(C)C,01000000100000000000000000011000010000000000000000000001000000010000000000000000100000000000000001010000000000000010000000000000
"2,2'-dimethylbiphenyl",182.26516,761.6,0.477,531.15,CC(C)(C)C(C)(C)CO,00000000100000000000000000000000010000010000000000000000000000010000000000000000100000000000001001000000000000000011000000000000
"2,2'-oxydiethanethiol",138.2548,720.0,0.419,490.15,CCC(CC)C(C)(C)C(C)(C)C,01000000100000000000000000000000110000100000000000000100000000000000000000000000100000000000000001000000000000000010000000000000
"2,2,3,3,4,4-hexamethylhexane",170.33844,691.43,0.318,489.15,CC(C)(C)C(C)(C)C,00000000100000000000000000000000010000000000000000000000000000000000000000000000000000000000000001000000000000000010000000000000
"2,2,3,3,4,4-hexamethylpentane",156.31156,672.56,0.275,467.15,CCCCC(C)(C)C(C)(C)C,00000000100000000000000000101000010000100000000000000000000000010000000000000000100000000000000001000000000000000010000100000000
"2,2,3,3,4,5-hexamethylhexane",170.33844,662.99,0.347,472.15,CCCC(C)(C)C(C)(C)C,00000000100000000000000000101000010000100000000000000000000000010000000000000000100000000000000001000000000000000010000000000000
"2,2,3,3,4-pentamethylheptane",170.33844,660.06,0.375,473.15,CCCCCC(C)(C)C(C)(C)C,00000000100000000000000000101000010000100000000000000000000000010000000000000000100000000000000001000000000000000010000100000000
"2,2,3,3,4-pentamethylhexane",156.31156,648.89,0.333,457.15,CCC(C)(C)C(C)(C)C,00000000100000000000000000000000010000110000000000000000000000010000000000000000100000000000000001000000000000000010000000000000
"2,2,3,3,4-pentamethylpentane",142.28468,643.8,0.294,439.21,CC(C)C(C)(C)C(C)C(C)(C)C,01000000100101000000000000010000010000000000000000000000000000000000000000000000000000000000000000000001000001000010000000000000
"2,2,3,3,5,5-hexamethylhexane",170.33844,661.75,0.318,468.15,CCC(C)(C(C)(C)C)C(C)(C)C,00000000100000000000000000000000010000110000000000000000000000000000000000000000100000000000000101000000000000000010000000000000
"2,2,3,3,5-pentamethylheptane",170.33844,651.69,0.375,467.15,CC(C)(C)C(C)(O)C(C)(C)C,00000000110000000000000000000000010000010000000000000000000000000000000000000000000000000000000001000000000000000010100000000000
"2,2,3,3,5-pentamethylhexane",156.31156,629.72,0.333,443.65,CCCC(C)(C)C(C)C(C)(C)C,01000000100001000000000000111000010000100000100000000000000000000000000000000000100000000000000000000000000001000010000000000000
"2,2,3,3,6-pentamethylheptane",170.33844,650.3,0.375,466.15,CCC(C)(C)C(C)C(C)(C)C,01000000100001000000000000010000010000110000100000000000000000000000000000000000100000000000000000000000000001000010000000000000
"2,2,3,3-tetramethyl-1-butanol",130.23032,616.52,0.639,446.0,CC(C(C)(C)C)C(C)(C)C,01000000100001000000000000010000010000000000000000000000000000000000000000000000000000000000000000000000000001000010000000000000
"2,2,3,3-tetramethyl-4-ethylhexane",170.33844,661.46,0.375,474.15,CC(C(C)C(C)(C)C)C(C)(C)C,01000000100001000000000000010000010000000000000000000000000000000000000000000000000000000000000000000000000001000010000000000000
"2,2,3,3-tetramethylbutane",114.23092,568.0,0.245,379.44,CCC(C)C(C)C(C)C(C)(C)C,01000000100001000000000000010000010000100000000000000000000000000000000000000000100000000000000000000100000001000010000001000000
"2,2,3,3-tetramethylheptane",156.31156,638.82,0.361,453.15,CC(C)C(C)C(C)C(C)(C)C,01000000100001000000000000010000010000000000000000000000000000000000000000000000000000000000000000000100000001000010000000000000
"2,2,3,3-tetramethylhexane",142.28468,623.0,0.366,433.48,CC(C)CC(C)C(C)C(C)(C)C,01000000100001000000000000010000010000001000000000000001000000000000000000000000100000000000000000000000000001000010000001000000
"2,2,3,3-tetramethyloctane",170.33844,655.89,0.403,473.15,CCC(C)C(C)(CC)C(C)(C)C,01000100100000000000000000010000010000110000000000000000000000000000000000000000100000000000000011000000000000000010000000000000
"2,2,3,3-tetramethylpentane",128.2578,607.5,0.305,413.44,CCC(C)(C(C)C)C(C)(C)C,01000000100000000000000000010000010000110000000000000000000000000000000000000000100000000000000011000001000000000010000000000000
"2,2,3,4,4,5-hexamethylhexane",170.33844,672.82,0.347,479.15,CCC(C)C(C)(O)C(C)(C)C,01000100100000000100000000010000010000110000000000000000000000000000000000000000100000000000000001000000000000000010100000000000
"2,2,3,4,4-pentamethyl-3-ethylpentane",170.33844,688.61,0.318,487.15,CC(C)C(C)(C(C)C)C(C)(C)C,01000000100000000000000000010000010000000000000000000000000000000000000000000000000000000000000001000001000000000010001000000000
"2,2,3,4,4-pentamethyl-3-pentanol",158.28408,637.91,0.629,467.55,CC(C)C(C)(O)C(C)(C)C,01000000100000000100000000010000010000010000000000000000000000000000000000000000000000000000000001000001000000000010100000000000
"2,2,3,4,4-pentamethylheptane",170.33844,662.85,0.375,475.15,CCC(C)(CC)C(C)C(C)(C)C,01000000100001000000000000010000010000110000000000000000000000000010000000000000100000000000000000000000000001000010000000000000
"2,2,3,4,4-pentamethylhexane",156.31156,651.73,0.333,459.15,CCCC(C)C(C)C(C)(C)C,01000000100001000000000000110000010000100000000000000000000000000000000000000000100000000000000000010000000001000010000001000000
"2,2,3,4,4-pentamethylpentane",142.28468,627.3,0.308,432.45,CCC(C)C(C)C(C)(C)C,01000000100001000000000000010000010000100000000000000000000000000000000000000000100000000000000000000000000001000010000001000000
"2,2,3,4,5,5-hexamethylhexane",170.33844,650.35,0.347,463.15,CCCCC(C)C(C)C(C)(C)C,01000000100001000000000000110000010000100000000000000000000000000000000000000000100000000000000000010000000001000010000101000000
"2,2,3,4,5-pentamethylheptane",170.33844,647.63,0.404,467.15,CC(C)C(C)C(C)(C)C,01000000100001000000000000010000010000000000000000000000000000000000000000000000000000000000000000000000000001000010000000000000
"2,2,3,4,5-pentamethylhexane",156.31156,630.42,0.362,447.15,CCC(C)(C)CC(C)C(C)(C)C,01000100100000000000000000010000010000110000000000000000010000000000000000010000100000000000000000000000000001000010000000000000
"2,2,3,4,6-pentamethylheptane",170.33844,639.31,0.404,461.15,CC(CC(C)(C)C)C(C)(C)C,01000100100000000000000000010000010000000000000000000000010000000000000000000000100000000000000000000100000001000010000000000000
"2,2,3,4-tetramethyl-3-ethylhexane",170.33844,665.64,0.375,477.15,CC(C)C(C)CC(C)C(C)(C)C,01000100100000000000000000010000010000001000000000000000000000000000000000000000100000000000000000000000000001000010000001000000
"2,2,3,4-tetramethyl-3-ethylpentane",156.31156,651.73,0.333,459.15,CCC(C)(CC(C)C)C(C)(C)C,01000000100000000000000000010000010000110000000000000001010000000000000000000000100000000000001001000000000000000010000000000000
"2,2,3,4-tetramethyl-3-hexanol",158.28408,627.63,0.693,465.15,CC(C)CC(C)(O)C(C)(C)C,01000000100000001000000000010000010000010000000000000001010000000000000000000000100000000000000001000000000000000010100000000000
"2,2,3,4-tetramethyl-3-isopropylpentane",170.33844,670.01,0.347,477.15,CCC(C(C)C)C(C)C(C)(C)C,01000000100001000000000000010000010000100000000000000000000000001000000000000000100000000000000000000000000001000010000000000000
"2,2,3,4-tetramethyl-3-pentanol",144.2572,612.5,0.651,447.35,CCC(C)CC(C)C(C)(C)C,01000100100000000000000000010000010000101000000000000000000000000000000000000000100000010000000000000000000001000010000000000000
"2,2,3,4-tetramethyl-4-ethylhexane",170.33844,671.22,0.375,481.15,CC(C)CC(C)C(C)(C)C,01000100100000000000000000010000010000001000000000000001000000000000000000000000100000000000000000000000000001000010000000000000
"2,2,3,4-tetramethylheptane",156.31156,629.04,0.391,449.15,CCCC(C)CC(C)C(C)(C)C,01000100100000000000000000110000010000101000000000000000000000000000000000000000100000010000000000010000000001000010000000000000
"2,2,3,4-tetramethylhexane",142.28468,620.4,0.345,431.96,CC(CCC(C)(C)C)C(C)(C)C,01000100100000000000000000011000010000000000000000000000000000000000000000000000100000000000000000010100000001000010000000000000
"2,2,3,4-tetramethyloctane",170.33844,645.03,0.432,468.15,CC(C)CCC(C)C(C)(C)C,01000100100000000000000000010000010000000000000000000001000000000000000000000000100000000000000000010000000001000010000000000000
"2,2,3,4-tetramethylpentane",128.2578,592.6,0.314,406.18,CCC(C)CCC(C)C(C)(C)C,01000100100000000000000000010000010000100000000000000000000000000000000000000000100000010000000000010000000001000010000000000000
"2,2,3,5,5-pentamethylheptane",170.33844,641.93,0.375,460.15,CC(C)CCCC(C)C(C)(C)C,01000100100000000000000000010000010000000000000000000001000000000000000000000000100000000000000000010000000001000010000100000000
"2,2,3,5,5-pentamethylhexane",156.31156,623.34,0.333,439.15,CC(C)(Cl)C(C)(Cl)Cl,00000000100000000001000000000000010100000000000000000100000000000000000000000000000000000000010000000000000000000010000000000000
"2,2,3,5,6-pentamethylheptane",170.33844,640.42,0.404,461.95,CC(I)C(C)(I)I,01001000100000001000010000010000010000000000000000000010000000000000000000000000000000000000000000000000000000000010000000000000
"2,2,3,5-tetramethyl-3-ethylhexane",170.33844,651.69,0.375,467.15,CC(C)C(C)(C)CO,01000000100000000000000000010000010000010000100000000000000000000000000000000000100000000000001000000001000000000011000000000000
"2,2,3,5-tetramethyl-3-hexanol",158.28408,692.84,0.693,513.48,CCC(C)C(C)(C)CO,01000100100000000000000000010000010000110000100000000000000000000000000000000000100000000000001000000000000000000011000000000000