name,molweight,critical temperature (K),acentric factor,boiling point (K),SMILES,ECFP_Bits
"1,2,3-trichlorobutane",161.45768,656.99,0.332,439.15,CC1CCCC(C)C1C,00001000000000000000000000000110010000000000010000000000000000000001000000000000000000000000010000000000000000000000000000010000
"1,2,3-trichloropropane",147.4308,652.0,0.306,430.0,CC1CCC(=C1C)C,00000000000000000000000000000110010000001010010000000010001000000000000000100000000000000000000000001000000000000000000000010000
"1,2,3-triethylbenzene",162.27492,684.37,0.479,490.66,CC1C(=C(C)c2ccccc12)C,00010000000000000000000000000100010000000000000000000010001000001000010000000000010000100000000010001000000000000000000001010000
"1,2,3-triethylebenzene",162.27492,683.0,0.505,490.7,Cc1cc2ccccc2c(C)c1C,00000000000000000000000000000000010000000000000000000000001000011000000000000100010000100000000000001000000100010000000000001000
"1,2,3-trifluorobutane",112.0947896,429.75,0.33,287.85,Clc1cc(Cl)c(Cl)cc1Cl,00000000000000000001000000000000000000000000000001000000000000000000000000000000010000000000000000001000000100100000000000000000
"1,2,3-trifluoropropane",98.0679096,401.66,0.315,265.41,CCc1cc(CC)c(CC)cc1CC,00000001000000000000000000000000010000100000000000000000000000000000010000000000110000000000000000001000000100000000000000000000
"1,2,3-triiodo-2-methylpropane",435.81299,867.15,0.269,567.11,CC(C)c1cc(C(C)C)c(cc1C(C)C)C(C)C,01000000000000000000000000010000010000000000000000000000000000000000000000000000010000100000000000001000000101000000000000000000
"1,2,3-triiodobutane",435.81299,863.14,0.301,569.46,Cc1cc(C)c(C)cc1C,00000000000000000000000000000000010000000000000000000000001000000000000000000000010000000000000000001000000100010000000000000000
"1,2,3-triiodopropane",421.78611,841.02,0.286,547.02,Cc1ccc2c(C)c(C)cc(C)c2c1,00000000000000000000000000000001010000000000000000000000001000000000000000000100010000100000000000001000000100010000000000001000
"1,2,3-trimethyl-4-ethylbenzene",148.24804,699.56,0.441,493.55,Cc1ccc2c(C)cc(C)c(C)c2c1,00000000000000000000000000000001010000000000000000000000001000000000000000000100010000100000000000001000000100010000000000001000
"1,2,3-trimethyl-5-ethylbenzene",148.24804,693.04,0.441,488.95,Cc1cc(C)c2cccc(C)c2c1C,00000000000000000000000000000000010000000000000000000000001000001000000000000100010000100000000000001000000100010000000000001000
"1,2,3-trimethylbenzene",120.19428,664.5,0.367,449.27,CC(C)(C)c1ccc(c(c1)C(C)(C)C)C(C)(C)C,00000000110000000000000000000000010100000000000000000000000100000000000000000000010000100000000000001000000100000010000000000000
"1,2,3-trimethylcyclohexane",126.24192,621.31,0.29,415.15,BrCCC(Br)CBr,01001000000000000000000000000000000000000000000000000000000000100000000000000000100000001001000000010000000000010000000000010000
"1,2,3-trimethylcyclopentene",110.19916,602.71,0.315,394.75,Cc1cc(Cl)c(Cl)cc1Cl,00000000000000000001000000000000010000000000000001000000001000000000000000000000010000000000000000001000000100110000000000000000
"1,2,3-trimethylindene",158.24316,726.0,0.441,509.0,Clc1ccc(Cl)c(Cl)c1,00000000000000000001000000000000000000000000000001000000000000000000000000000000010000101000000000001000000100100000000000000000
"1,2,3-trimethylnaphthalene",170.25416,783.95,0.492,556.15,ClCCC(Cl)CCl,01000000000000000011000000000000000000000000000010000000000000000000000000000000100001000000000000010000000000000010010000000000
"1,2,4,5-tetrachlorobenzene",215.89268,759.69,0.437,518.25,CCc1ccc(CC)c(CC)c1,00000001000000000000000000000000010000100000000000000000000000000000010000000000110000100010000000001000000100000000000000000000
"1,2,4,5-tetraethylbenzene",190.32868,706.85,0.562,523.16,FCCC(F)CF,01000000100000000000000000100000000000000000000000000000000000000000000000000000100001010000000000010000000000000000000000000001
"1,2,4,5-tetraisopropylbenzene",246.4362,754.52,0.742,532.15,ICCC(I)CI,01000100000000001000010000000000000000000000000000000000000000001000000000000000100000010100000000010000000000000000000000000000
"1,2,4,5-tetramethylbenzene",134.22116,676.0,0.422,469.99,CC(C)c1ccc(C(C)C)c(c1)C(C)C,01000000000000000000000000010000010000000000000000000000000000000000000000000000010001100000000000001000000101000000000000000000
"1,2,4,6-tetramethylnaphthalene",184.28104,810.54,0.535,585.41,CCc1c(C)ccc(C)c1C,00000001000000000000000000000000010000100000000000000000001000000000000000000000110000100000000000001000000000010010000000001000
"1,2,4,7-tetramethylnaphthalene",184.28104,810.54,0.535,585.41,CCc1cc(C)c(C)cc1C,00000001000000000000000000000000010000100000000000000000001000000000010000000000110000000000000000001000000100010000000000000000
"1,2,4,8-tetramethylnaphthalene",184.28104,810.54,0.535,585.41,CC(C)c1cc(C)c(C)cc1C,01000000000000000000000000010000010000000000000000000000001000000000000000000000010000100000000000001000000101010000000000000000
"1,2,4-tri-tert-butylbenzene",246.4362,754.52,0.742,570.29,CCc1cc(C)cc(C)c1C,00000001000000000000000000000001010000100000000000000000001000000000010000000000110000000000000000001000000100010000000000001000
"1,2,4-tribromobutane",294.81158,717.58,0.565,488.15,Cc1ccc(C)c(C)c1,00000000000000000000000000000001010000000000000000000000001000000000000000000000010000100000000000001000000100010000000000000000
"1,2,4-trichloro-5-methylbenzene",195.4748,737.0,0.26,504.15,CC1=CC(=C(C=C1Cl)Cl)Cl,00000000000000000001000000000000010000000000000001000000001000000000000000000000010000000000000000001000000100110000000000000000
"1,2,4-trichlorobenzene",181.44792,725.0,0.358,486.15,Cc1cc(C)c2ccccc2c1C,00000000000000000000000000000000010000000000000000000000001000001000000000000100010000100000000000001000000100010000000000001000
"1,2,4-trichlorobutane",161.45768,652.82,0.362,440.0,Cc1ccc2c(C)c(C)ccc2c1C,00000000000000000000000000000000010000000000000000000000001000000000000000000100010000100000000000001000000000010000000000001000
"1,2,4-triethylbenzene",162.27492,684.0,0.501,491.15,Cc1ccc2c(C)ccc(C)c2c1C,00000000000000000000000000000000010000000000000000000000001000001000000000000100010000100000000000001000000000010000000000001000
"1,2,4-trifluorobutane",112.0947896,426.87,0.36,288.29,Cc1cc(Cl)cc(Cl)c1Cl,00000000000000000001000000000000010000000000000001000000001000000000000000000000010000001000000000001000000100110001000000000000
"1,2,4-triiodobutane",435.81299,856.37,0.331,569.9,CC(C)c1ccc(C)c2ccc(C)c(C)c12,01000000000000000000000000010000010000000000000000000000001000001000000000000100010000100000000000001000000001010000000000001000
"1,2,4-triisopropylbenzene",204.35556,741.0,0.638,517.15,Cc1ccc2c(C)cccc2c1C,00000000000000000000000000000000010000000000000000000000001000001000000000000100010000100000000000001000000000010000000000001000
"1,2,4-trimethyl-3-ethylbenzene",148.24804,694.17,0.441,489.75,Cc1cc(C)c2c(ccc(C)c2C)c1,00000000000000000000000000000001010000000000000000000000001000011000000000000000010000100000000000001000000100010000000000001000
"1,2,4-trimethyl-5-ethylbenzene",148.24804,689.07,0.441,486.15,Cc1ccc2c(ccc(C)c2C)c1,00000000000000000000000000000001010000000000000000000000001000010000000000000100010000100000000000001000000100010000000000001000
"1,2,4-trimethyl-5-isopropylbenzene",162.27492,697.15,0.437,494.15,Cc1ccc2ccc(C)c(C)c2c1,00000000000000000000000000000001010000000000000000000000001000010000000000000100010000100000000000001000000100010000000000001000
"1,2,4-trimethyl-6-ethylbenzene",148.24804,689.07,0.441,486.15,Cc1ccc2cccc(C)c2c1C,00000000000000000000000000000000010000000000000000000000001000011000000000000000010000100000000000001000000000010000000000001000
"1,2,4-trimethylbenzene",120.19428,649.1,0.379,442.53,CCSCCSCC,00000000000000000000000000000010010001100000000000000000010000000000000000000000100000000000000000000000000000000000100000000000
"1,2,4-trimethylcyclohexane, isomers",126.24192,621.31,0.29,415.05,CSCCSC,00000000001000000000001000000010010000000000000000000000000000000000000000000000100000000000000000000000000000000000100000000000
"1,2,4-trimethylnaphthalene",170.25416,782.54,0.492,555.15,C[CH]=[C]=[CH2],00000000000000000000000000000000011000000000100000000010000000000000000000001000000010100000000001000000000000000000000000000000
"1,2,5,6-tetramethylnaphthalene",184.28104,810.54,0.535,585.41,CCC(O)CO,01000000100000000000000000000000010000110000000000000000000000000000000000000000100000000000001000110000000000000000001000000000
"1,2,5,8-tetramethylnaphthalene",184.28104,810.54,0.535,585.41,CC(C)C(C)(Br)CBr,01000000100000000000100000010000010000000000000000000000000000000000000000000000110000001000000000000001000000000010000000010000
"1,2,5-trichloro-3-methylbenzene",195.4748,737.0,0.26,503.15,CCC(C)(Br)CBr,00000000100000000000100000000000010000110000000000000000000000000000000000000000110000001000000000000000000000000010000000010000
"1,2,5-trimethyl-8-isopropylnaphthalene",212.3348,808.25,0.605,581.25,CC(C)(Br)CBr,00000000100000000000100000000000010000000000000000000000000000000000000000000000110000101000000000000000000000000010000000010000
"1,2,5-trimethylnaphthalene",170.25416,779.72,0.492,553.15,CC(C)(C)C(Br)CBr,01000000100000000000000000000000010000000000000000000000100000100000000000000000100000001001000000000000000001000010000000010000
"1,2,6,8-tetramethylnaphthalene",184.28104,810.54,0.535,585.41,CC(C)C(Br)CBr,01000000000000000000000000010000010000000000000000000000000000100000000000100000100000001001000000000000000001000000000000010000
"1,2,6-trimethylnaphthalene",170.25416,779.72,0.492,553.15,CCC(Br)CBr,01001000100000000000000000000000010000100000000000000000000000100000000000000000100000001001000000000000000000000000000000010000
"1,2,7-trimethylnaphthalene",170.25416,776.9,0.492,551.15,BrCCBr,00000000000000000000000000000000000000000000000000000000000000000000000000000000100000001000000000000000000000010000000000010000
"1,2,8-trimethylnaphthalene",170.25416,786.77,0.492,558.15,CCCCCC(Br)CBr,01001000000000000000000000100000010000100000000000000000000000100000000000000000100000001001000000010000000000000000000100010000
"1,2-bis(ethylthio)ethane",150.30916,673.0,0.37,490.15,CCCCC(Br)CBr,01001000000000000000000000100000010000100000000000000000000000100000000000000000100000001001000000010000000000000000000100010000
"1,2-bis(methylthio)ethane",122.2554,642.0,0.346,455.15,CCCCCCCC(Br)CBr,01001000000000000000000000100000010000100000000000000000000000100000000000000000100000001001000000010000000000000000000100010000
"1,2-butadiene",54.09164,452.0,0.166,284.0,CCCCCCC(Br)CBr,01001000000000000000000000100000010000100000000000000000000000100000000000000000100000001001000000010000000000000000000100010000
"1,2-butanediol",90.1222,680.0,0.631,469.57,CCCC(Br)CBr,01001000000000000000000000100000010000100000000000000000000000100000000000000000100000001001000000010000000000000000000000010000
"1,2-dibromo-2,3-dimethylbutane",243.96928,684.21,0.526,486.03,CC(Br)CBr,01000000000000000000000000010000010000000000000000000000000000100000000000000000100000001001000000000000001000000000000000010000
"1,2-dibromo-2-methylbutane",229.9424,665.93,0.414,446.15,FC(F)(Br)C(F)(F)Br,00000000100000000000100000000000000000000000010000000000000000000000000000000000010000001000000000000000000000000010000000000000
"1,2-dibromo-2-methylpropane",215.91552,644.38,0.369,422.15,FC(F)(Cl)C(F)(F)Cl,00000000100000000001000000000000000100000000010000000000000000000000000000000000000000000000000000000000001000000010000000000000
"1,2-dibromo-3,3-dimethylbutane",243.96928,684.21,0.526,486.03,FC(Cl)C(F)(F)Cl,01000000100000000011000000100000000100000000010000000000000000000000000000000000000000000000000100000000000000000010010000000000
"1,2-dibromo-3-methylbutane",229.9424,659.19,0.448,445.24,FC(F)(Cl)CCl,00000000100000000001000000000000000100000000010010000000000000000000000000000000100001000000000000000000001000000010000000000000
"1,2-dibromobutane",215.91552,659.28,0.429,439.46,FC1(F)C(F)(F)C(F)(Cl)C1(F)Cl,00000000100000100001000000000000100010000000000000000000000000000000000000000000000000000000000000000000000000000100000000010000
"1,2-dibromoethane",187.86176,650.15,0.207,404.51,FC(Cl)C(F)Cl,01000000100000000011000000100000000000000000001000000000000000000000000000000000000000000000000000000000000000000000000000000000
"1,2-dibromoheptane",257.99616,700.05,0.571,501.15,FC(Cl)CCl,01000000100000000011000000100000000000000000000000000000000000000000000000000000100001000000000000000000000000000100010000000000
"1,2-dibromohexane",243.96928,684.21,0.526,486.03,CC=C(Cl)CCl,00000000000010000001000000010000010000010000000000000010000000000000000000001000100001000000000000000000000000000000000000000000
"1,2-dibromononane",286.04992,729.44,0.659,545.65,CCC(C)(Cl)CCl,00000000100000000001000000000000010100110000000000000000000000000000000000000000100001000000000000000000001000000010000000000000
"1,2-dibromooctane",272.02304,716.02,0.616,514.15,CC(C)(Cl)CCl,00000000100000000001000000000000010100000000000000000000000000000000000000000000100001001000000000000000001000000010000000000000
"1,2-dibromopentane",229.9424,671.42,0.48,457.15,CC(C)C(Cl)CCl,01000000000000000011000000010010010000000000000000000000000000000000000000000000100001000000000000000000000001000000010000000000
"1,2-dibromopropane",201.88864,634.11,0.384,413.16,CC(C)(C)CC(Cl)CCl,01000000100000000011000000000000010000000000000000000000010000000000000000000000100001000000000000000100000000000010010000000000
"1,2-dibromotetrafluoroethane",259.8236128,487.8,0.243,320.31,ClCc1ccc(Cl)c(Cl)c1,00000000000000000001000000000000000000000000000001000000000000000000000000000000110011100010000000001000000100100000000000000000
"1,2-dichloro-1,1,2,2-tetrafluoroethane",170.9210128,418.85,0.252,276.92,[O-][N+](=O)c1ccc(Cl)c(Cl)c1,00000000001000000001000000000000000000000001000001000000000000000000001000010000010000100000000000001000000100100100000000100000
"1,2-dichloro-1,1,2-trifluoroethane",152.9305496,461.6,0.241,301.15,CCC(Cl)CCl,01000000100000000011000000000000010000100000000000000000000000000000000000000000100001000000000000000000000000000010010000000000
"1,2-dichloro-1,1-difluoroethane",134.9400864,495.15,0.298,319.78,ClCCCl,00000000000000000001000000000000000000000000000010000000000000000000000000000000100001000000000000000000000000000000000000000000
"1,2-dichloro-1,2,3,3,4,4-hexafluorocyclobutane",232.9398192,497.0,0.233,332.15,C1(C(C(C1(F)Cl)(F)Cl)(F)F)(F)F,00000000100000100001000000000000100010000000000000000000000000000000000000000000000000000000000000000000000000000100000000010000
"1,2-dichloro-1,2-difluoroethane",134.9400864,487.57,0.295,319.95,CCCCCC(Cl)CCl,01000000000000000011000000100000010000100000000000000000000000000000000000000000100001000000000000010000000000000010010100000000
"1,2-dichloro-1-fluoroethane",116.9496232,538.33,0.272,346.95,FC(F)(F)C(F)(Cl)C(F)(F)Cl,00000000100000000001000000000000000100000000010000000000000100000000000000000000000000000000000000000000001000000010000000000010
"1,2-dichloro-2-butene",124.99704,640.0,0.302,403.65,CCCCC(Cl)CCl,01000000000000000011000000100000010000100000000000000000000000000000000000000000100001000000000000010000000000000010010100000000
"1,2-dichloro-2-methylbutane",141.0398,615.95,0.291,407.15,CCCC(Cl)CCl,01000000000000000011000000100000010000100000000000000000000000000000000000000000100001000000000000010000000000000010010000000000
"1,2-dichloro-2-methylpropane",127.01292,584.32,0.247,380.15,CC(Cl)CCl,01000000000000000011000000010000010000000000000000000000000000000000000000000000100001010000000000000000000000000000010000000000
"1,2-dichloro-3-methylbutane",141.0398,620.02,0.323,416.15,CC(C)C(CCl)Cl,01000000000000000011000000010010010000000000000000000000000000000000000000000000100001000000000000000000000001000000010000000000
"1,2-dichloro-4,4-dimethylpentane",169.09356,654.02,0.442,448.15,CC(Cl)=CCl,00000000100010000001000000000000010000010000000000000010000000000000000000000000000000000000000000000000000000000000000101000001
"1,2-dichloro-4-(chloromethyl)benzene",195.4748,737.0,0.26,514.15,C1CCC(CC1)CCC2CCCCC2,00001000000000000000000000000110000000000000010000000000000000001000000000000000100000000000000000000000000000000000000000010000
"1,2-dichloro-4-nitrobenzene",192.00076,758.0,0.539,529.0,CC(CC1CCCCC1)C2CCCCC2,01001000000000000000000000010110010000000000010000000010001000000000000000000000100000000000000000000000000000000000000000010000
"1,2-dichlorobutane",127.01292,600.0,0.299,397.15,CCc1ccc2ccccc2c1CC,00000001000000000000000000000000010000100000000000000000000000011000010000000100110000100000000000001000000000000010000000000000
"1,2-dichloroethane",98.95916,561.6,0.287,356.59,CCC(C)(F)CF,00000000100000010000000000000000010000110000010000000000000100000000000000000000100000010000000000000000000000000010000000000000
"1,2-dichloroethylene, cis and trans",96.94328,505.67,0.267,328.15,CC(C)(F)CF,00000000100000000000000000000000010000000000010000000000000100000000000000000000100000010000000000000000000000000010000000000000
"1,2-dichloroheptane",169.09356,654.02,0.442,454.15,CC(C)C(F)CF,01000000100000000000000000110000010000000000000000000000000000000000000000000000100000010000000000000000000001000000000000100000
"1,2-dichlorohexafluoropropane",220.9288192,449.0,0.329,309.25,CCC(F)CF,01000000100000000000000000100000010000100000000000000000000000000000000000000000100000010000000000000000000000000000000000000001
"1,2-dichlorohexane",155.06668,633.09,0.397,446.15,FCCF,00000000100000000000000000000000000000000000000000000000000000000000000000000000100001010000000000000000000000000000000000000000
"1,2-dichloropentane",141.0398,620.88,0.352,420.15,CCCC(F)CF,01000000100000000000000000100000010000100000000000000000000000000000000000000000100000010000000000010000000000000000000000000001
"1,2-dichloropropane",112.98604,572.0,0.256,369.52,CC(F)CF,01000000100000000000000000110000011000000000000000000000000000000000000000000000100000010000000000000000000000000000000000000000
"1,2-dichloropropane, (±)",112.98604,568.62,0.249,369.55,Cc1cccc(O)c1O,00000000000000000000000000000000010000010000000000000000001000001010000100100000010000100000000000001000000000010000000000000000
"1,2-dichloropropene",110.97016,577.0,0.206,348.15,Cc1ccc(O)c(O)c1,00000000000000000000000000000001010000010000000000000000001000000010000100000000010000100000000000001000000100000000000000000000
"1,2-dicyclohexylethane",194.36044,762.12,0.429,545.65,CCC(C)(I)CI,00000000100001000000011000000000010000110000000000000000000000000000000000000000100000010000000000000000000000000010000000000000
"1,2-dicyclohexylpropane",208.38732,766.86,0.471,557.65,CC(C)(I)CI,00000000100001000000011000000000010000000000000000000000000000000000000000000000100000010000000000000000000000000010000000000000
"1,2-diethylnaphthalene",184.28104,812.35,0.537,585.41,CC(C)C(I)CI,01000100000000001000010000010000010000000000000000000000000000000000000000000000100000010000000000000000100001000000000000000000
"1,2-difluoro-2-methylbutane",108.1312064,463.73,0.29,309.11,CCC(I)CI,01000100100000001000010000000000010000100000000000000000000000000000000000000000100000010100000000000000000000000000000000000000
"1,2-difluoro-2-methylpropane",94.1043264,472.94,0.246,308.15,ICCI,00000000000000000000010000000000000000000000000000000000000000001000000000000000100000010000000000000000000000000000000000000000
"1,2-difluoro-3-methylbutane",108.1312064,463.41,0.321,311.46,CCCC(I)CI,01000100000000001000010000100000010000100000000000000000000000000000000000000000100000010100000000010000000000000000000000000000
"1,2-difluorobutane",94.1043264,487.3,0.306,323.15,CC(I)CI,01000100000000001000010000010000010000000000000000000010000000000000000000000000100000010000000000000000000000000000000000000000
"1,2-difluoroethane",66.0505664,445.0,0.222,283.65,CC(C)c1ccccc1C(C)C,01000000000000000000000000010000010000000000000000000000000000001000000000000000010000100000000000001000000001000000000000000000
"1,2-difluoropentane",108.1312064,513.8,0.351,348.15,COCCOC,00000000000001000000000000000000010000000000000000000001000000000000000001000000100000000000000000000000000001000000000000000000