name,molweight,critical temperature (K),acentric factor,boiling point (K),SMILES,ECFP_Bits
"1,1,1-tribromoethane",266.75782,698.32,0.407,446.15,CC(Br)(Br)Br,00000001100000000000000000000000010000000000000000000000000000000000000000000000010000001000000000000000000000000010000000000000
"1,1,1-tribromoheptadecane",477.16102,847.65,0.96,676.15,CCCCCCCCCCCCCCCCC(Br)(Br)Br,00000000000000000000000000101000010000100000000000000000000000100000000000000000110000001000000000000000000000000010000100000000
"1,1,1-tribromoheptane",336.89222,756.89,0.632,537.15,CCCCCCC(Br)(Br)Br,00000000000000000000000000101000010000100000000000000000000000100000000000000000110000001000000000000000000000000010000100000000
"1,1,1-tribromohexadecane",463.13414,838.47,0.947,664.15,CCCCCCCCCCCCCCCC(Br)(Br)Br,00000000000000000000000000101000010000100000000000000000000000100000000000000000110000001000000000000000000000000010000100000000
"1,1,1-tribromohexane",322.86534,746.32,0.586,520.15,CCCCCC(Br)(Br)Br,00000000000000000000000000101000010000100000000000000000000000100000000000000000110000001000000000000000000000000010000100000000
"1,1,1-tribromononadecane",505.21478,864.19,0.964,697.15,CCCCCCCCCCCCCCCCCCC(Br)(Br)Br,00000000000000000000000000101000010000100000000000000000000000100000000000000000110000001000000000000000000000000010000100000000
"1,1,1-tribromononane",364.94598,777.84,0.72,570.15,CCCCCCCCC(Br)(Br)Br,00000000000000000000000000101000010000100000000000000000000000100000000000000000110000001000000000000000000000000010000100000000
"1,1,1-tribromooctadecane",491.1879,856.21,0.966,687.15,CCCCCCCCCCCCCCCCCC(Br)(Br)Br,00000000000000000000000000101000010000100000000000000000000000100000000000000000110000001000000000000000000000000010000100000000
"1,1,1-tribromooctane",350.9191,767.84,0.676,554.15,CCCCCCCC(Br)(Br)Br,00000000000000000000000000101000010000100000000000000000000000100000000000000000110000001000000000000000000000000010000100000000
"1,1,1-tribromopentadecane",449.10726,829.92,0.927,652.15,CCCCCCCCCCCCCCC(Br)(Br)Br,00000000000000000000000000101000010000100000000000000000000000100000000000000000110000001000000000000000000000000010000100000000
"1,1,1-tribromopentane",308.83846,736.13,0.541,503.15,CCCCC(Br)(Br)Br,00000000000000000000000000101000010000100000000000000000000000100000000000000000110000001000000000000000000000000010000100000000
"1,1,1-tribromopropane",280.7847,710.72,0.451,465.15,CCC(Br)(Br)Br,00000000000000000000000000000000010000110000000000000000000000100000000000000000110000001000000000000000000000000010000000000000
"1,1,1-tribromotetradecane",435.08038,821.99,0.903,640.15,CCCCCCCCCCCCCC(Br)(Br)Br,00000000000000000000000000101000010000100000000000000000000000100000000000000000110000001000000000000000000000000010000100000000
"1,1,1-tribromotridecane",421.0535,813.37,0.873,627.15,CCCCCCCCCCCCC(Br)(Br)Br,00000000000000000000000000101000010000100000000000000000000000100000000000000000110000001000000000000000000000000010000100000000
"1,1,1-tribromoundecane",392.99974,795.21,0.802,599.15,CCCCCCCCCCC(Br)(Br)Br,00000000000000000000000000101000010000100000000000000000000000100000000000000000110000001000000000000000000000000010000100000000
"1,1,1-trichloro-2,2,2-trifluoroethane",187.3753096,483.0,0.267,319.2,FC(F)(F)C(Cl)(Cl)Cl,00000000100000000001000000000000000100000000010000000000000100001000000000000000000000000000000000000000000000000010000000000000
"1,1,1-trichloro-2,2-difluoroethane",169.3848464,530.7,0.288,346.15,FC(F)C(Cl)(Cl)Cl,01000000100000000001000000100000000100000000000100000000000000000000000000000000000000000000000000000000000000010010000000000000
"1,1,1-trichloro-2-fluoroethane",151.3943832,565.0,0.25,366.0,FCC(Cl)(Cl)Cl,00000000100000000001000000000000000100000000000000000000000100000000000000000000100000010000000000000000001000000010000000000000
"1,1,1-trichloro-2-methylpropane",161.45768,631.61,0.271,415.0,CC(C)C(Cl)(Cl)Cl,01000000000000000001000000010000010100000000000100000000000000000000000000000000000000000000000000000001000000000010000000000000
"1,1,1-trichlorobutane",161.45768,614.26,0.3,407.15,CCCC(Cl)(Cl)Cl,00000000000000000001000000101000010100100000000000000000000000000000000000000000100000000000000000000000001000000010000000000000
"1,1,1-trichlorodecane",245.61896,724.19,0.561,535.15,CCCCCCCCCC(Cl)(Cl)Cl,00000000000000000001000000101000010100100000000000000000000000000000000000000000100000000000000000000000001000000010000100000000
"1,1,1-trichlorododecane",273.67272,751.55,0.638,570.15,CCCCCCCCCCCC(Cl)(Cl)Cl,00000000000000000001000000101000010100100000000000000000000000000000000000000000100000000000000000000000001000000010000100000000
"1,1,1-trichloroeicosane",385.88776,841.03,0.774,680.15,CCCCCCCCCCCCCCCCCCCC(Cl)(Cl)Cl,00000000000000000001000000101000010100100000000000000000000000000000000000000000100000000000000000000000001000000010000100000000
"1,1,1-trichloroethane",133.40392,545.0,0.218,347.23,CC(Cl)(Cl)Cl,00000000100000010001000000000000010100000000000000000000000000000000000000000000000000000000000000000000000000000010000000000000
"1,1,1-trichloroheptadecane",343.80712,808.7,0.766,643.15,CCCCCCCCCCCCCCCCC(Cl)(Cl)Cl,00000000000000000001000000101000010100100000000000000000000000000000000000000000100000000000000000000000001000000010000100000000
"1,1,1-trichloroheptane",203.53832,676.24,0.434,476.15,CCCCCCC(Cl)(Cl)Cl,00000000000000000001000000101000010100100000000000000000000000000000000000000000100000000000000000000000001000000010000100000000
"1,1,1-trichlorohexadecane",329.78024,798.28,0.75,630.15,CCCCCCCCCCCCCCCC(Cl)(Cl)Cl,00000000000000000001000000101000010100100000000000000000000000000000000000000000100000000000000000000000001000000010000100000000
"1,1,1-trichlorohexane",189.51144,657.17,0.389,454.15,CCCCCC(Cl)(Cl)Cl,00000000000000000001000000101000010100100000000000000000000000000000000000000000100000000000000000000000001000000010000100000000
"1,1,1-trichlorononadecane",371.86088,830.05,0.778,668.15,CCCCCCCCCCCCCCCCCCC(Cl)(Cl)Cl,00000000000000000001000000101000010100100000000000000000000000000000000000000000100000000000000000000000001000000010000100000000
"1,1,1-trichlorononane",231.59208,710.31,0.52,517.15,CCCCCCCCC(Cl)(Cl)Cl,00000000000000000001000000101000010100100000000000000000000000000000000000000000100000000000000000000000001000000010000100000000
"1,1,1-trichlorooctadecane",357.834,819.7,0.775,656.15,CCCCCCCCCCCCCCCCCC(Cl)(Cl)Cl,00000000000000000001000000101000010100100000000000000000000000000000000000000000100000000000000000000000001000000010000100000000
"1,1,1-trichlorooctane",217.5652,693.91,0.477,497.15,CCCCCCCC(Cl)(Cl)Cl,00000000000000000001000000101000010100100000000000000000000000000000000000000000100000000000000000000000001000000010000100000000
"1,1,1-trichloropentadecane",315.75336,787.14,0.729,616.15,CCCCCCCCCCCCCCC(Cl)(Cl)Cl,00000000000000000001000000101000010100100000000000000000000000000000000000000000100000000000000000000000001000000010000100000000
"1,1,1-trichloropentane",175.48456,635.09,0.345,430.15,CCCCC(Cl)(Cl)Cl,00000000000000000001000000101000010100100000000000000000000000000000000000000000100000000000000000000000001000000010000100000000
"1,1,1-trichloropropane",147.4308,585.43,0.256,379.15,CCC(Cl)(Cl)Cl,00000000000000000001000000000000010100110000000000000000000000000000000000000000100000000000000000000000001000000010000000000000
"1,1,1-trichlorotetradecane",301.72648,775.24,0.702,601.15,CCCCCCCCCCCCCC(Cl)(Cl)Cl,00000000000000000001000000101000010100100000000000000000000000000000000000000000100000000000000000000000001000000010000100000000
"1,1,1-trichlorotridecane",287.6996,763.82,0.672,586.15,CCCCCCCCCCCCC(Cl)(Cl)Cl,00000000000000000001000000101000010100100000000000000000000000000000000000000000100000000000000000000000001000000010000100000000
"1,1,1-trichloroundecane",259.64584,738.37,0.601,553.15,CCCCCCCCCCC(Cl)(Cl)Cl,00000000000000000001000000101000010100100000000000000000000000000000000000000000100000000000000000000000001000000010000100000000
"1,1,1-trifluoro-2-methylpropane",112.0947896,432.9,0.269,285.06,CC(C)C(F)(F)F,01000000100000000000000000010000010000000000010000000000000000000000000000000000000000000000000000000001000000000010000000000000
"1,1,1-trifluorobutane",112.0947896,425.8,0.368,289.85,CCCC(F)(F)F,00000000100000000000000000101000010000100000010000000000000000000000000000000000100001000000000000000000000000000010000000000000
"1,1,1-trifluorodecane",196.2560696,600.1,0.533,442.15,CCCCCCCCCC(F)(F)F,00000000100000000000000000101000010000100000010000000000000000000000000000000000100001000000000000000000000000000010000100000000
"1,1,1-trifluorododecane",224.3098296,638.2,0.597,481.15,CCCCCCCCCCCC(F)(F)F,00000000100000000000000000101000010000100000010000000000000000000000000000000000100001000000000000000000000000000010000100000000
"1,1,1-trifluoroeicosane",336.5248696,743.4,0.746,597.15,CCCCCCCCCCCCCCCCCCCC(F)(F)F,00000000100000000000000000101000010000100000010000000000000000000000000000000000100001000000000000000000000000000010000100000000
"1,1,1-trifluoroethane",84.0410296,345.88,0.261,225.81,CC(F)(F)F,00000000100000000000000000000000010000000000010000000000000000000000000000000000000000000000000000000000100000000010000000000000
"1,1,1-trifluoroheptadecane",294.4442296,710.6,0.713,560.15,CCCCCCCCCCCCCCCCC(F)(F)F,00000000100000000000000000101000010000100000010000000000000000000000000000000000100001000000000000000000000000000010000100000000
"1,1,1-trifluoroheptane",154.1754296,527.9,0.439,374.15,CCCCCCC(F)(F)F,00000000100000000000000000101000010000100000010000000000000000000000000000000000100001000000000000000000000000000010000100000000
"1,1,1-trifluorohexadecane",280.4173496,698.2,0.682,545.15,CCCCCCCCCCCCCCCC(F)(F)F,00000000100000000000000000101000010000100000010000000000000000000000000000000000100001000000000000000000000000000010000100000000
"1,1,1-trifluorohexane",140.1485496,498.2,0.409,348.15,CCCCCC(F)(F)F,00000000100000000000000000101000010000100000010000000000000000000000000000000000100001000000000000000000000000000010000100000000
"1,1,1-trifluorononadecane",322.4979896,733.2,0.733,585.15,CCCCCCCCCCCCCCCCCCC(F)(F)F,00000000100000000000000000101000010000100000010000000000000000000000000000000000100001000000000000000000000000000010000100000000
"1,1,1-trifluorononane",182.2291896,578.4,0.505,421.15,CCCCCCCCC(F)(F)F,00000000100000000000000000101000010000100000010000000000000000000000000000000000100001000000000000000000000000000010000100000000
"1,1,1-trifluorooctadecane",308.4711096,722.3,0.668,569.15,CCCCCCCCCCCCCCCCCC(F)(F)F,00000000100000000000000000101000010000100000010000000000000000000000000000000000100001000000000000000000000000000010000100000000
"1,1,1-trifluorooctane",168.2023096,554.5,0.467,398.15,CCCCCCCC(F)(F)F,00000000100000000000000000101000010000100000010000000000000000000000000000000000100001000000000000000000000000000010000100000000
"1,1,1-trifluoropentadecane",266.3904696,684.8,0.658,530.15,CCCCCCCCCCCCCCC(F)(F)F,00000000100000000000000000101000010000100000010000000000000000000000000000000000100001000000000000000000000000000010000100000000
"1,1,1-trifluoropentane",126.1216696,464.5,0.383,320.15,CCCCC(F)(F)F,00000000100000000000000000101000010000100000010000000000000000000000000000000000100001000000000000000000000000000010000100000000
"1,1,1-trifluoropropane",98.0679096,392.0,0.301,260.15,CCC(F)(F)F,00000000100000000000000000000000010000110000010000000000000000000000000000000000100001000000000000000000000000000010000000000000
"1,1,1-trifluorotetradecane",252.3635896,670.4,0.645,515.15,CCCCCCCCCCCCCC(F)(F)F,00000000100000000000000000101000010000100000010000000000000000000000000000000000100001000000000000000000000000000010000100000000
"1,1,1-trifluorotridecane",238.3367096,654.9,0.615,498.15,CCCCCCCCCCCCC(F)(F)F,00000000100000000000000000101000010000100000010000000000000000000000000000000000100001000000000000000000000000000010000100000000
"1,1,1-trifluoroundecane",210.2829496,620.0,0.564,462.15,CCCCCCCCCCC(F)(F)F,00000000100000000000000000101000010000100000010000000000000000000000000000000000100001000000000000000000000000000010000100000000
"1,1,1-triiodo-2-methylpropane",435.81299,874.42,0.24,566.67,CCCC(I)(I)I,00000000000000000000010000101000010000100000000000000000000000000010000000000000100000000000000000000000000000000010000000000000
"1,1,1-triiodobutane",435.81299,867.15,0.269,567.11,CCCCCCCCCC(I)(I)I,00000000000000000000010000101000010000100000000000000000000000000010000000000000100000000000000000000000000000000010000100000000
"1,1,1-triiododecane",519.97427,961.43,0.532,704.39,CCCCCCCCCCCC(I)(I)I,00000000000000000000010000101000010000100000000000000000000000000010000000000000100000000000000000000000000000000010000100000000
"1,1,1-triiodododecane",548.02803,996.02,0.611,750.15,CC(I)(I)I,00000000100000000000010000000000010000000000000000000000000000000000000000000000000000000000000000000000010000000010000000000000
"1,1,1-triiodoethane",407.75923,838.1,0.182,521.35,CCCCCCCCC(I)(I)I,00000000000000000000010000101000010000100000000000000000000000000010000000000000100000000000000000000000000000000010000100000000
"1,1,1-triiodoheptane",477.89363,912.73,0.403,635.75,CCCCCCCC(I)(I)I,00000000000000000000010000101000010000100000000000000000000000000010000000000000100000000000000000000000000000000010000100000000
"1,1,1-triiodohexane",463.86675,897.23,0.358,612.87,CCC(I)(I)I,00000000000000000000010000000000010000110000000000000000000000000010000000000000100000000000000000000000000000000010000000000000
"1,1,1-triiodononane",505.94739,944.8,0.49,681.51,CCCCCCCCCCCCCC(I)(I)I,00000000000000000000010000101000010000100000000000000000000000000010000000000000100000000000000000000000000000000010000100000000
"1,1,1-triiodooctane",491.92051,928.58,0.447,658.63,CCCCCCCCCCC(I)(I)I,00000000000000000000010000101000010000100000000000000000000000000010000000000000100000000000000000000000000000000010000100000000
"1,1,1-triiodopentane",449.83987,882.04,0.314,589.99,FCC(F)(F)C(F)F,01000000100000000000000000100000000000000000010000000000000100000000000000000000100000010000000000010000000000010010000000000000
"1,1,1-triiodopropane",421.78611,852.51,0.225,544.23,BrC(Br)C(Br)Br,01000000000000000000000000000000000000000000000000000000000000100000000000000000100000001000000000000000000000000000000000000000
"1,1,1-triiodotetradecane",576.08179,1032.58,0.679,795.91,CC(Br)(Br)C(Br)Br,01000000100000000000000000000000010000000000000000000000000000100000000000000000010000011000000000000000000000000010000000100000
"1,1,1-triiodotridecane",562.05491,1014.03,0.647,773.03,FC(Cl)(Cl)C(F)(Cl)Cl,00000000100000000001000000000010000100000000010000000000000000000000000000000000000000000000000000000000000000000010000000000000
"1,1,1-triiodoundecane",534.00115,978.49,0.573,727.27,FC(Cl)(Cl)C(Cl)Cl,01000000100001000011001000000000000100000000010000000000000000000000000000000000000000000000000000000000000000000010000000000000
"1,1,2,2,3,3-hexafluoropropane",152.0392992,417.09,0.358,283.15,ClC(Cl)C(Cl)Cl,01000000000000000011000000000000000000010000000000000000000000000000000000000000000000000000000000000000000000000000000000000000
"1,1,2,2,3-pentafluoropropane",134.048836,447.44,0.33,299.15,CC(Cl)(Cl)C(Cl)Cl,01000000100000000011001000000000011100000000000000000000000000000000000000000000000000000000000000000000000000000010000000000000
"1,1,2,2-tetrabromoethane",345.65388,824.0,0.147,516.65,FC(F)C(F)F,01000000100000000000000000101000000000000000000000000000000000000000000000000000000000000000000000000000000000000000000000000000
"1,1,2,2-tetrabromopropane",359.68076,766.37,0.552,508.15,CC(F)(F)C(F)F,01000000100000000000000000100000010000000000010000000000000000000000000000000000000000000000000000000000000000010010000000000000
"1,1,2,2-tetrachloro-1,2-difluoroethane",203.8296064,551.0,0.279,366.0,IC(I)C(I)I,01001000000000001000010000000000000000000000000000000000000000000000000000000000000000000000000000000000000000000000000000000000
"1,1,2,2-tetrachloro-1-fluoroethane",185.8391432,598.0,0.289,389.75,CC(I)(I)C(I)I,01001000100000001000010000000000010000000000000000000000000000000000000000000000000000000000000000000000000000000010000000010000
"1,1,2,2-tetrachloroethane",167.84868,645.0,0.247,418.25,CC1(C)CCCC1(C)C,00001000001000000000000000000010010010000000000000000000000000000000000000000000000000000000000000000000000000000000000001100000
"1,1,2,2-tetrachloropropane",181.87556,654.51,0.28,428.15,c1ccc(cc1)C(C(c2ccccc2)c3ccccc3)c4ccccc4,01000000000000000000000000000000000000000000000000000000000001001000000000000000010001100000000000001000000000000000000000000000
"1,1,2,2-tetrafluoroethane",102.0314928,391.8,0.266,250.15,FC(F)=C(F)C(F)(F)C(F)(F)F,00000000100000000000000000000000000001010000010100000000000100000000000000000000000000000000000001000000000000000010000000001000
"1,1,2,2-tetrafluoropropane",116.0583728,457.26,0.277,300.0,FC(F)C(F)C(F)F,01000000100000000000000000101000000000000000000000000000000000010000000000000000000000000000000000000000000000000000000000000000
"1,1,2,2-tetraiodoethane",533.65576,963.61,0.261,619.12,BrCC(Br)C(Br)Br,01000000000000000000000000000000000000000000000000000000000000100000000000100000100000001001000000000000000000000000000000010000
"1,1,2,2-tetraiodopropane",547.68264,992.1,0.239,636.93,ClCC(Cl)C(Cl)Cl,01000000000000000011000000000010000000010000000000000000000000000000000000000000100001000000000000000000000000000000010000000000
"1,1,2,2-tetramethylcyclopentane",126.24192,609.38,0.258,406.15,FCC(F)C(F)F,01000000100000000000000000101000000000000000000000000000000000000000000000000000100000010000000000000000000000000000000000100000
"1,1,2,2-tetraphenylethane",334.46068,827.0,0.732,633.15,ICC(I)C(I)I,01001100000000001000010000000000000000000000000000000000000000000000000000000000100000010000000000000000100000000000000000000000
"1,1,2,3,3,4,4,4-octafluoro-1-butene",200.0312256,392.0,0.291,277.0,CC(C)(Br)C(Br)Br,01000000100000000000000000000000010000000000000010000000000000100000000000000000010000001000000000000000000000000010000000100000
"1,1,2,3,3-pentafluoropropane",134.048836,441.38,0.37,300.0,CCC(Br)C(Br)Br,01000000100000000000000000000000010000100000000000000000000000100000000000100000100000001000000000000000000000000000000000000000
"1,1,2,3-tetrabromopropane",359.68076,798.18,0.625,538.15,BrCC(Br)Br,01000000000000000000000000000000000000000000000000000000000000100000000000000000100000001001000000000000001000000000000000010000
"1,1,2,3-tetrachloropropane",181.87556,677.77,0.342,451.15,CC(Br)C(Br)Br,01000000000000000000000000010000010000000000000010000000000000100000000000000000100000001000000000000000000000000000000000000000
"1,1,2,3-tetrafluoropropane",116.0583728,449.44,0.338,300.0,FC(F)(Cl)C(F)(Cl)Cl,00000000100000000001000000000010000100000000010000000000000000000000000000000000000000000000000000000000001000000010000000000000
"1,1,2,3-tetraiodopropane",547.68264,978.29,0.3,639.72,FC(Cl)C(F)(Cl)Cl,01000000100001000011000000100000000100000000010000000000000000000000000000000000000000000000000100000000000000000010000000000000
"1,1,2-tribromo-2-methylpropane",294.81158,758.11,0.462,503.15,FC(Cl)(Cl)CCl,00000000100000000001000000000000000100000000010000000000000000000000000010000000100001000000000000000000001000000010000000000000
"1,1,2-tribromobutane",294.81158,725.15,0.531,489.35,FC(Cl)C(Cl)Cl,01000000100000000011000000100000000000010000001000000000000000000000000000000000000000000000000000000000000000000000000000000000
"1,1,2-tribromoethane",266.75782,709.9,0.476,462.08,CC(C)(Cl)C(Cl)Cl,01000000100000000011001001000000010100000000000000000000000000000000000000000000000000000000000000000000000000000010000000000000
"1,1,2-tribromopropane",280.7847,718.16,0.486,474.15,CCC(Cl)C(Cl)Cl,01000000100000000011000000000010010000110000000000000000000000000000000000000000100000000000000000000000000000000000000000000000
"1,1,2-trichloro-1,2,2-trifluoroethane",187.3753096,487.25,0.252,320.75,ClCC(Cl)Cl,01000000000000000011000000000000000000000000000000000000000000000000000000000000100001000000000000000000100000000000010000000000