name,molweight,critical temperature (K),acentric factor,boiling point (K),SMILES,ECFP_Bits
"3,3-dimethyl-2-pentanol",116.20344,582.97,0.662,420.15,CCC(CC)CC(C)(C)CC,01000000100010000000000000000000010000110000000000000000010000000000000000010000100000000000000000000000000000000010000000000000
"3,3-dimethyl-2-pentanone",114.18756,589.07,0.387,403.75,CCCC(CC)CC(C)(C)CC,01000000100010000000000000100000010000110000000000000000010000000000000000010000100000000000000000010000000000000010000000000000
"3,3-dimethyl-2-thiabutane",104.21628,570.0,0.233,372.05,CCC(CC)CCC(C)(C)CC,01000000100010000000000000001000010000110000000000000000000000000000000000010000100000000000000000010000000000000010000000000000
"3,3-dimethyl-2-thiapentane",118.24316,632.0,0.284,423.0,CC(=O)OCC=C(C)C,00000000001100000001000000000000010100010000000000000011000000000000000000000000100000000000000100000000010000000000000001000100
"3,3-dimethyl-4,4-diethylhexane",170.33844,669.75,0.403,483.15,CC(C)(C)CC=O,00000000101000000000000000000000010000000000000000100010000000000000000000000000100000000000000000000100100010000010000000000000
"3,3-dimethyl-4-decyne",166.30668,677.2,0.503,500.93,CC(C)(C)CC#N,00000000100000000000001000000000011000100000000000000000000000000100000000000000100000000000000000000100100000000010000000000000
"3,3-dimethyl-4-ethylheptane",156.31156,630.56,0.419,453.15,CC1(C)CCCC=C1,00001000001000000001000000000010010010000000000000000000000000000000000000000000010000000000000000000000100000000000000000110000
"3,3-dimethyl-4-ethyloctane",170.33844,645.29,0.461,471.15,CC1(C)CCC=C1,00000000001000000001000000000010010010000000000000000000000000000000000000000000010000000000000000000000100000000000000000110000
"3,3-dimethyl-4-heptanol",144.2572,604.74,0.748,449.15,CCCCCCCC(C)(C)CC,00000000100000000000000000101000010000110000000000000000000000000000000000010000100000000000000000000000000000000010000100000000
"3,3-dimethyl-4-isopropylheptane",170.33844,643.65,0.432,467.15,CCCCC(C)(C)CC,00000000100000000000000000101000010000110000000000000000000000000000000000010000100000000000000000000000000000000010000100000000
"3,3-dimethyl-4-nonyne",152.2798,660.54,0.46,483.34,CCCC(C)(C)CC,00000000100000000000000000101000010000110000000000000000000000000000000000010000100000000000000000000000000000000010000000000000
"3,3-dimethyl-4-propylheptane",170.33844,642.55,0.461,469.15,CCCCCCC(C)(C)CC,00000000100000000000000000101000010000110000000000000000000000000000000000010000100000000000000000000000000000000010000100000000
"3,3-dimethyl-5-ethylheptane",156.31156,623.6,0.419,448.15,CCCCCC(C)(C)CC,00000000100000000000000000101000010000110000000000000000000000000000000000010000100000000000000000000000000000000010000100000000
"3,3-dimethyl-5-ethyloctane",170.33844,635.7,0.461,464.15,CCC(C)(C)CC,00000000100000000000000000000000010000110000000000000000000000000000000000010000100000000000000000000000000000000010000000000000
"3,3-dimethyl-6-ethyloctane",170.33844,642.55,0.461,469.15,CC1(C)CCOC1,00000000001100001000000000000010010010000000000000000010000000000000000010000001000000000000000000000000000000000000000000100000
"3,3-dimethylallyl acetate",128.17108,592.33,0.432,447.69,CC1(C)CCCSC1,00001000001000000000010000000010010110000000000000000000000000000000000000000001000000000000000000000000000100000000000000100000
"3,3-dimethylbutanal",100.16068,558.82,0.37,377.15,CC1(C)CCSC1,00000000001000000000010000000010010110000000000000000000000000000000000000000001000000000000000000000000000100000000000000100000
"3,3-dimethylbutanenitrile",97.16008,598.54,0.379,409.15,Cc1ccc(cc1)c2cccc(C)c2,00000000100000000000000000000001010000000000000000000000001000001000000000000000010000100000000000001000000100000000000000000000
"3,3-dimethylcyclohexene",110.19916,599.77,0.247,392.15,CCC(C)(O)C(C)(C)C(C)C,01000000100000001000000000010000010000110000000000000100000000000000000000000000100000000000000000000001000000000010100000000000
"3,3-dimethylcyclopentene",96.17228,559.35,0.232,361.15,CCC(C)C(C)(C)C(C)CC,01000100100100000000000000010000010000100000000000000000000000000000000000000000100000000000000000000000000000000010000000000000
"3,3-dimethyldecane",170.33844,648.37,0.489,476.15,CCCC(C)C(C)(C)C(C)CC,01000100100100000000000000110000010000100000000000000000000000000000000000000000100000000000000000010000000000000010000000000000
"3,3-dimethylheptane",128.2578,588.85,0.365,410.45,CCC(C)CC(C)(C)C(C)CC,01000100100000000000000000010000010000100000100000000000010000000000000000000000100000010000000000000000000000000010000000000000
"3,3-dimethylhexane",114.23092,562.0,0.32,385.12,CCC(C)(C)C(C)CCO,01000100100000000000000000010000010000110000100000000000000000000000000000000000100000000100001000010000000000000010000000000000
"3,3-dimethylnonane",156.31156,629.38,0.448,455.15,CC(CCO)C(C)(C)C,01000100100000000000000000010000010000010000000000000000000000000000000000000000100000000100001000010000000001000010000000000000
"3,3-dimethyloctane",142.28468,612.1,0.404,434.36,CC(C=C)C(C)(C)C,01000000100000000000000000010000010000000000000000000010100000000000000000000000000000100000000000000000000001000010000000100000
"3,3-dimethylpentane",100.20404,536.4,0.268,359.21,CC(O)C(C)C(C)(C)C,01000000100001000000000000010100010000010000000000000000000000000000000000000000000000000000000000010000000001000010000000000000
"3,3-dimethyltetrahydrofuran",100.16068,573.9,0.269,372.15,CC=C(C)C(C)(C)C,00000000100000100000000000000000010000010000000000000010000000000000000000001000000000000000000000100000000000000010000001000000
"3,3-dimethylthiacyclohexane",130.25416,657.02,0.249,427.18,CCCC(C)(C)C(C)(CC)CC,00000000100000000000000000101000010000110000000000000000000000010000000000000000100000000000001000000000000000000010000000000000
"3,3-dimethylthiacyclopentane",116.22728,623.18,0.235,400.03,CCC(C)(C)C(C)(O)CC,00000000100000001000000000000000010000110000000000000000000000010000000000000000100000000000000000000000000000000010100000000000
"3,4'-dimethylbiphenyl",182.26516,808.3,0.414,556.15,CCC(C)C(C)(C)C(CC)CC,01000100100100000000000000010000110000100000000000000000000000000000000000000000100000000000000000000000000000000010000000000000
"3,4,4,5-tetramethylheptane",156.31156,641.65,0.391,458.15,CCC(C)C(C)(C)C(C)CC,01000100100100000000000000010000010000100000000000000000000000000000000000000000100000000000000000000000000000000010000000000000
"3,4,4,5-tetramethyloctane",170.33844,653.29,0.432,474.15,CCCC(C)(C)C(C)CC,01000100100000000000000000111000010000100000100000000000000000000000000000000000100000000000000000000000000000000010000000000000
"3,4,4,6-tetramethyloctane",170.33844,645.03,0.432,468.15,CCCCCC(C)(C)C(C)CC,01000100100000000000000000111000010000100000100000000000000000000000000000000000100000000000000000000000000000000010000100000000
"3,4,4-trimethyl-1-hexanol",144.2572,624.94,0.748,464.15,CCCCC(C)(C)C(C)CC,01000100100000000000000000111000010000100000100000000000000000000000000000000000100000000000000000000000000000000010000100000000
"3,4,4-trimethyl-1-pentanol",130.23032,606.5,0.706,444.0,CCC(C)(O)C(C)C(C)(C)C,01000000100001000000000000010000010000110000000000000000000000000000000000000000100000000000000000000000000001000010100000000000
"3,4,4-trimethyl-1-pentene",112.21504,560.14,0.268,377.15,CCCC(C)(C)C(C)C(C)CC,01000000100001000000000000111000010000100000100000000000000000000000000000000000100000000000000000000000000000000010000001000000
"3,4,4-trimethyl-2-pentanol",130.23032,592.43,0.674,431.15,CCC(C)C(C)C(C)C(C)CC,01000000100000000000000000010000010000100000000000000000000000000000000000000000100000000000000000000100000000000000000001000000
"3,4,4-trimethyl-2-pentene",112.21504,564.74,0.328,385.15,CCC(C)C(C)C(C)(CC)CC,01000000100001000000000000010000010000110000000000000000000000000010000000000000100000000000000000000000000000000010000001000000
"3,4,4-trimethyl-3-ethylheptane",170.33844,662.82,0.403,478.15,CCC(C)C(C)(CC)C(C)CC,01000100100000000000000000010000010000110000000000000000001000000000000000000000100000000000000000000000000000000010000000000000
"3,4,4-trimethyl-3-hexanol",144.2572,597.8,0.682,439.15,CCC(C)C(C)C(C)CC,01000000100000000000000000010000010000100000000000000000000000000000000000000000100000000000000000000100000000000000000001000000
"3,4,4-trimethyl-5-ethylheptane",170.33844,654.67,0.432,475.15,CCCCC(C)C(C)C(C)CC,01000000100000000000000000110000010000100000000000000000000000000000000000000000100000000000000000010100000000000000000101000000
"3,4,4-trimethyl-cis-2-pentene",112.21504,573.25,0.263,385.15,CCCC(C)C(C)C(C)CC,01000000100000000000000000110000010000100000000000000000000000000000000000000000100000000000000000010100000000000000000001000000
"3,4,4-trimethyl-trans-2-pentene",112.21504,573.25,0.263,385.15,Cc1cc(O)cc(C)c1C,00000000000000000000000000000000010000010000000000000000001000000010000000000000010000000000000000001000010100010000000000001000
"3,4,4-trimethylheptane",142.28468,620.9,0.365,434.26,CCCC(C)CC(C)C(C)CC,01000000100000000000000000110000010000101000000000000000000000000000000000000000100000010000000000010000000000000000000001000000
"3,4,4-trimethylnonane",170.33844,648.03,0.461,473.15,CCC(C)CC(C)C(C)CC,01000000100000000000000000010000010000101000000000000000000000000000000000000000100000010000000000000000000000000000000001000000
"3,4,4-trimethyloctane",156.31156,631.95,0.419,454.15,CCC(C)CCC(C)C(C)CC,01000000100000000000000000010000010000100000000000000000000000000000000000000000100000010000000000010000000000000000000001000000
"3,4,5,5-tetramethyl-3-hexanol",158.28408,631.67,0.693,468.15,CCCC(Br)C(Br)CC,01000000100000000000000000100000010000100000000000000000000000100000000000100000100000001000000000010000000000000000000000000000
"3,4,5,5-tetramethyloctane",170.33844,647.78,0.432,470.15,CCC(Br)C(Br)CC,01000000100000000000000000000000010000100000000000000000000000100000000000100000100000001000000000000000000000000000000000000000
"3,4,5,6-tetramethyloctane",170.33844,646.71,0.462,472.15,ClCC(Cl)C=C,01000000000000000011000000000000000000000000000000000010100000000000000000000000100001100000000000000000000011000000010000000000
"3,4,5-trimethyl-3-ethylheptane",170.33844,654.67,0.432,475.15,Nc1ccc(Cl)c(Cl)c1,00000000000000000001000000000000000000000000000001000000000000000000000000000000010000100000000000001000000100100000000010000000
"3,4,5-trimethyl-4-ethylheptane",170.33844,658.81,0.432,478.15,Clc1ccc(cc1Cl)N=C=O,00000000001000000001000000000000001000000000000001000000000000100000000010000000010001100000000000001000000100100000000010010000
"3,4,5-trimethylheptane",142.28468,612.8,0.417,435.66,Cc1ccc(Cl)c(Cl)c1,00000000000000000001000000000001010000000000000001000000001000000000000000000000010000100000000000001000000100100000000000000000
"3,4,5-trimethylnonane",170.33844,644.34,0.491,473.15,CCCC(CC)C(CC)CC,01000000100000000000000000100000010000100000000000000000000000000000000000000000101000000000000000010000000000000000000000000000
"3,4,5-trimethyloctane",156.31156,628.05,0.449,454.15,CCC(CC)C(CC)CC,01000000100000000000000000000000010000100000000000000000000000000000000000000000101000000000000000000000000000000000000000000000
"3,4,5-trimethylphenol",136.19368,761.43,0.494,524.95,CCCCC(CC)C(CC)CC,01000000100000000000000000100000010000100000000000000000000000000000000000000000101000000000000000010000000000000000000100000000
"3,4,6-trimethylnonane",170.33844,640.25,0.491,470.15,CCc1ccc(O)cc1CC,00000001000000000000000000000000010000110000000000000000000000000010010000000000110000100000000000001000010100000000000000000000
"3,4,6-trimethyloctane",156.31156,625.29,0.449,452.15,COC1CCC=CO1,00000000000000001000000000000010010000000100010000000001000000100000000001000000010000000000000000000100100000000000000000010001
"3,4,7-trimethylnonane",170.33844,644.34,0.491,473.15,CSc1ccc(C)c(C)c1,00000000001000000000000000000000010000000001000000000000001100000000000000000000010000100000000000001000000100010000100000000000
"3,4-dibromoheptane",257.99616,700.05,0.571,510.82,CCC(C)C(C)CCO,01000000100000000000000000010000010000110000000000000000000000000000000000000000100000000100001000010000000000000000000001000000
"3,4-dibromohexane",243.96928,684.21,0.526,486.03,CCC(C)C(C)C=C,01000000100000000000000000010000010000100000000000000010100000001000000000000000100000100000000000000000000001000000000001000000
"3,4-dichloro-1-butene",124.99704,589.0,0.3,388.0,CC(C)C(C)CCO,01000000000000000000000000010000010000010000000000000000000000000000000000000000100000000100001000010000000001000000000001000000
"3,4-dichloroaniline",162.01784,800.0,0.468,545.0,CC(C)C(C)C=C,01000000000000000000000000010000010000000000000000000010100000001000000000000000000000100000000000000000000001000000000000000000
"3,4-dichlorophenyl isocyanate",188.01236,733.0,0.335,501.0,CC(C)C(C)C#C,01001000000000000001000000010000011000000000000000000000000000000000000001000010000000000000000000000000000001000000000000000000
"3,4-dichlorotoluene",161.03004,710.0,0.343,482.05,CCc1c(O)ccc(C)c1C,00000001000000000000000000000000010000110000000000000000001000000010000100000000110000100000000000001000000000010010000000001000
"3,4-diethylheptane",156.31156,622.87,0.478,453.15,CCC(C)C(C)C(C)O,01000000100000000000000000010100010000110000000000000000000000000000000000000000100000000000000000010100000000000000000001000000
"3,4-diethylhexane",142.28468,618.8,0.403,437.06,CCC(C)C(C)C(C)=O,01000000101000000001000000010000010000111000000000000000000000000000000000000000100000000000000000000000000000000000000001000100
"3,4-diethyloctane",170.33844,639.37,0.519,472.15,CC(C)C(C)C(C)O,01000000000000000000000000010100010000010000000000000000000000000000000000000000000000000000000000010100000001000000000000000000
"3,4-diethylphenol",150.22056,780.8,0.541,547.87,CC(C)C(C)C(C)=O,01000000001000000001000000010000010000011000000000000000000000000000000000000000000000000000000000000000000001000000000001000100
"3,4-dihydro-2-methoxy-2H-pyran",114.1442,599.0,0.367,400.75,CSC(C)C(C)C,01000000001000000000000000010100011000000000000000000000000000000000000000000000000000000000000000000000000001000000100000000000
"3,4-dimethyl-(1-thiaethyl)-benzene",152.26028,743.84,0.415,510.74,CCC(C)(CC)C(C)(CC)CC,00000000100000000000000000000000010000110000000000000000000000000000000000000000100000000000001000000000000000000010000000000000
"3,4-dimethyl-1-hexanol",130.23032,613.27,0.773,454.0,CCC(C)(c1ccccc1)C(C)(CC)c2ccccc2,00000000110000000000000000000000010000110000000000000000000000001000000000000000110000100000000000001000000000000010000000000010
"3,4-dimethyl-1-hexene",112.21504,563.01,0.327,385.15,CCCC(C)C(C)(CC)CC,01000100100000000000000000110000010000110000000000000000000000000010000000000000100000000000000000010000000000000010000000000000
"3,4-dimethyl-1-pentanol",116.20344,600.63,0.731,438.15,CCCCC(C)C(C)(CC)CC,01000100100000000000000000110000010000110000000000000000000000000010000000000000100000000000000000010000000000000010000100000000
"3,4-dimethyl-1-pentene",98.18816,528.31,0.283,353.95,CCC(C)C(C)(O)CC,01000100100000000000000000010000010000110000000000000000000000000000000000000000100000000000000000000000000000000010100000000000
"3,4-dimethyl-1-pentyne",96.17228,539.46,0.241,353.15,CC(C)C(C)(C(C)C)C(C)O,01000000100000000000000000010000010000010000000000000000000000000001000000000000000000000000000001010001000000000010000000000000
"3,4-dimethyl-2-ethylphenol",150.22056,733.03,0.54,515.0,CCCC(C)(CC)C(C)CC,01000100100000000000000000111000010000110000000000000000000000000010000000000000100000000000000000000000000000000010000000000000
"3,4-dimethyl-2-hexanol",130.23032,603.29,0.741,444.15,CCCCC(C)(CC)C(C)CC,01000100100000000000000000111000010000110000000000000000000000000010000000000000100000000000000000000000000000000010000100000000
"3,4-dimethyl-2-hexanone",128.21444,624.0,0.528,431.15,CCCC(C)(C(C)C)C(C)CC,01000100100000000000000000111000010000100000000000000000001000000000000000000000100000000000000000000001000000000010000000000000
"3,4-dimethyl-2-pentanol",116.20344,587.7,0.697,426.15,CCCCC(C)(O)C(C)CC,01000100100000000000000000111000010000110000000000000000000000000000000000000000100000000000000000000000000000000010100100000000
"3,4-dimethyl-2-pentanone",114.18756,586.69,0.42,405.15,CCCC(C)(CCC)C(C)CC,01000100100000000000000000111000010000100000000000000000000000000010000000000000100000000000000000000000000000000010000000000000
"3,4-dimethyl-2-thiapentane",118.24316,597.54,0.321,401.15,CCC(C)C(C)C(CC)CC,01000000100000000000000000010000010000100000000000000000000000000000000000000000101000000000000000000100000000000000000001000000
"3,4-dimethyl-3,4-diethylhexane",170.33844,669.75,0.403,483.15,CCCC(CC)C(C)C(C)CC,01000000100000000000000000110000010000100000000000000000000000000000000000000000101000000000000000010100000000000000000001000000
"3,4-dimethyl-3,4-diphenylhexane",266.42644,810.0,0.698,619.15,CCc1cc(O)cc(C)c1C,00000001000000000000000000000000010000110000000000000000001000000010010000000000110000000000000000001000010100010000000000001000
"3,4-dimethyl-3-ethylheptane",156.31156,637.52,0.419,458.15,CCC(CC)CC(C)C(C)CC,01000000100010000000000000010000010000101000000000000000000000000000000000000000100000000000000000000000000000000000000001000000
"3,4-dimethyl-3-ethyloctane",170.33844,648.03,0.461,473.15,CCc1cc(C)c(C)cc1O,00000001000000000000000000000000010000110000000000000000001000000010010100000000110000000000000000001000000100010000000000000000
"3,4-dimethyl-3-hexanol",130.23032,580.75,0.706,425.15,CCC(C)C(C)(CC)O,01000100100000000000000000010000010000110000000000000000000000000000000000000000100000000000000000000000000000000010100000000000
"3,4-dimethyl-3-isopropyl-2-pentanol",158.28408,610.96,0.728,456.0,C/C=C(/C)C(C)C,01000000000000000000000000010000010000010000000000000010000000000000010000001000000000000000000000000000000000010000000001000000
"3,4-dimethyl-4-isopropylheptane",170.33844,653.29,0.432,474.15,C\C=C(/C)C(C)C,01000000000000000000000000010000010000010000000000000010000000000000010000001000000000000000000000000000000000010000000001000000
"3,4-dimethyl-4-propylheptane",170.33844,645.29,0.461,471.15,Cc1ccc(N)cc1C,00000000000000000001000000000000010000000000000001000000001000000000000000000000010000100000000000001000000100010000000010000000
"3,4-dimethyl-5-ethylheptane",156.31156,629.43,0.449,455.15,Cc1ccc(cc1C)c2ccccc2,00000000100000000000000000000000010000000000000000000000001000001000000000000000010000100000000000001000000100010000000000000000
"3,4-dimethyl-5-ethyloctane",170.33844,641.61,0.491,471.15,CCCCCCC(C)C(C)CC,01000000100000000000000000110000010000100000000000000000000000000000000000000000100000000000000000010000000000000000000101000000
"3,4-dimethyl-5-ethylphenol",150.22056,733.24,0.54,515.15,Cc1cocc1C,10000000000000001000000000000000010000010000000000000000001000000000000000000000010000000000000000001000000000010000000000000000
"3,4-dimethyl-6-ethyloctane",170.33844,641.61,0.491,471.15,CCCC(C)C(C)CC,01000000100000000000000000110000010000100000000000000000000000000000000000000000100000000000000000010000000000000000000001000000
"3,4-dimethyl-6-ethylphenol",150.22056,733.03,0.54,515.0,CCC(C)C(C)CC,01000000100000000000000000010000010000100000000000000000000000000000000000000000100000000000000000000000000000000000000001000000
"3,4-dimethyl-cis-2-hexene",112.21504,570.01,0.322,389.15,CCCCCC(C)C(C)CC,01000000100000000000000000110000010000100000000000000000000000000000000000000000100000000000000000010000000000000000000101000000
"3,4-dimethyl-cis-2-pentene",98.18816,542.11,0.278,362.4,CCCCC(C)C(C)CC,01000000100000000000000000110000010000100000000000000000000000000000000000000000100000000000000000010000000000000000000101000000
"3,4-dimethyl-cis-3-hexene",112.21504,578.0,0.326,395.15,CC=C(C)C(C)C,01000000000000000000000000010000010000010000000000000010000000000000010000001000000000000000000000000000000000010000000001000000
"3,4-dimethyl-trans-2-hexene",112.21504,570.01,0.322,389.15,Cc1ccncc1C,00000000000000000000000000000000010000000000000000000000001000000001000000100000010000100000000000001000000000010000000000100001