name,molweight,critical temperature (K),acentric factor,boiling point (K),SMILES,ECFP_Bits
"2,3,4-trimethylphenol",136.19368,739.96,0.494,510.15,CC(C)CC(C)(O)C(C)C,01000000100000000000000000010000010000010000000000000001010000000000000000000000100000000000000000000001000000000010100000000000
"2,3,4-trimethylpyridine",121.18208,653.0,0.376,465.65,CC(C)CC(C)(C(C)C)C(C)C,01000000100000000000000000010000010000000000000000000001011000000000000000000000100000000000000000000001000000000010000000000000
"2,3,4-trimethylthiophene",126.2224,654.54,0.431,445.85,CCC(C)C(CC)C(C)C(C)C,01000000100000000000000000010000010000100000000000000000000000001000000000000000100000000000000000000100000001000000000001000000
"2,3,5,5-tetramethyl-3-hexanol",158.28408,640.92,0.693,475.0,CCC(C(C)C)C(C)C(C)C,01000000100000000000000000010000010000100000000000000000000000001000000000000000100000000000000000000100000001000000000000000000
"2,3,5,5-tetramethylheptane",156.31156,623.44,0.391,445.15,CC(C)C(C)C(C(C)C)C(C)C,01000100000000000000000000010000010000000000000000000000000000000000000000000000000000000000000000000100000001000000000000000000
"2,3,5,5-tetramethyloctane",170.33844,645.03,0.432,468.15,CCC(C)(CC)CC(C)C(C)C,01000000100001000000000000010000010000110000000000000000010000000000000000000000100000000000000000000000000001000010000001000000
"2,3,5,6-tetramethylheptane",156.31156,623.65,0.421,448.15,CCC(C)CC(C)C(C)C,01000000100000000000000000010000010000101000000000000000000000000000000000000000100000010000000000000000000001000000000001000000
"2,3,5,6-tetramethyloctane",170.33844,641.23,0.462,468.15,CC(C)CC(C)C(C)C,01000000000000000000000000010000010000001000000000000001000000000000000000000000100000000000000000000000000001000000000001000000
"2,3,5,6-tetramethylphenol",150.22056,740.86,0.538,521.15,CCCCC(C)CC(C)C(C)C,01000000000000000000000000110000010000101000000000000000000000000000000000000000100000010000000000010000000001000000000101000000
"2,3,5,7-tetramethyloctane",170.33844,634.39,0.462,463.15,CCCC(C)CC(C)C(C)C,01000000000000000000000000110000010000101000000000000000000000000000000000000000100000010000000000010000000001000000000001000000
"2,3,5-trimethyl-3-ethylheptane",170.33844,648.47,0.432,470.65,Cc1cc(C)c(C)c(O)c1,00000000000000000000000000000001010000010000000000000000001000000010000100000000010000000000000000001000000100010000000000001000
"2,3,5-trimethyl-3-ethylhexane",156.31156,629.04,0.391,449.15,Cc1cnc(C)c(C)c1,00000000000000000000000000000001010000000000100000000000001000000000000000000000010000000000100000001000000100010000000000100001
"2,3,5-trimethyl-3-hexanol",144.2572,594.3,0.716,439.0,Cc1sc(C)c(C)c1,00000000000000000000000000000000011100000000000000000000011000000000000000000000010000000000000000001000000100010000000000000000
"2,3,5-trimethyl-3-isopropylhexane",170.33844,647.63,0.404,467.15,CCC(C)(C)CCC(C)C(C)C,01000000100000000000000000011000010000110000000000000000000000000000000000010000100000000000000000010000000001000010000001000000
"2,3,5-trimethyl-4-ethylheptane",170.33844,642.6,0.462,469.15,Cc1cc2cc(C)c(C)cc2cc1C,00000000000000000000000000000000010000000000000000000000001000010000000000000000010000000000000000001000000100010000000000000000
"2,3,5-trimethyl-4-ethylhexane",156.31156,626.44,0.421,450.15,CC(C)C(C)CCC(C)C(C)C,01000000000000000000000000010000010000000000000000000000000000000000000000000000100000000000000000010000000001000000000001000000
"2,3,5-trimethyl-4-isopropylhexane",170.33844,638.19,0.434,463.15,Cc1c(Cl)ccc(Cl)c1Cl,00000000000000000001000000000000010000000000000001000000001000000000000000000000010000100000000000001000000000100001000000001000
"2,3,5-trimethyl-5-ethylheptane",170.33844,643.65,0.432,467.15,CCC(C)(CCC(C)C)C(C)C,01000000100000000000000000011000010000110000000000000001000000000010000000000000100000000000000000010001000000000010000000000000
"2,3,5-trimethylheptane",142.28468,612.8,0.397,433.86,CC(C)CCC(C)(O)C(C)C,01000000100000000000000000011000010000010000000000000001000000000000000000000000100000000000000000010001000000000010100000000000
"2,3,5-trimethylhexane",128.2578,579.2,0.364,404.5,CCC(CC(C)C)C(C)C(C)C,01000000100000000000000000010000010000101000000000000001000000000000000000000000101000000000000000000100000001000000000000000000
"2,3,5-trimethylnonane",170.33844,638.89,0.491,469.15,CCC(CC(C)C(C)C)C(C)C,01000000100000000000000000010000010000101000000000000000000000000000000000000000101000000000000000000000000001000000000001000000
"2,3,5-trimethyloctane",156.31156,622.52,0.449,450.15,CC(C)CCC(C)C(C)C,01000000000000000000000000010000010000000000000000000001000000000000000000000000100000000000000000010000000001000000000001000000
"2,3,5-trimethylphenol",136.19368,737.64,0.494,508.55,Cc1ccc2cc(C)c(C)cc2c1,00000000000000000000000000000001010000000000000000000000001000010000000000000000010000100000000000001000000100010000000000000000
"2,3,5-trimethylpyridine",121.18208,653.0,0.376,457.15,CCCC(C)CCC(C)C(C)C,01000000000000000000000000110000010000100000000000000000000000000000000000000000100000010000000000010000000001000000000001000000
"2,3,5-trimethylthiophene",126.2224,656.26,0.341,437.65,CCC(C)CCC(C)C(C)C,01000000100000000000000000010000010000100000000000000000000000000000000000000000100000010000000000010000000001000000000001000000
"2,3,6,6-tetramethyloctane",170.33844,642.27,0.432,466.15,Cc1ccc(C)c(O)c1C,00000000000000000000000000000000010000010000000000000000001000000010000000100000010000100000000000001000000000010000000000001000
"2,3,6,7-tetramethylnaphthalene",184.28104,810.54,0.535,585.41,Cc1ccc(C)c(C)n1,00000000000000000000000000000000010000000000000000000000001000010001000000000000010000100000100000001000000000010000000000100000
"2,3,6,7-tetramethyloctane",170.33844,642.6,0.462,469.15,CCC(C)CCCC(C)C(C)C,01000000100000000000000000010000010000100000000000000000000000000000000000000000100000010000000000010000000001000000000101000000
"2,3,6-trichlorotoluene",195.4748,737.0,0.26,483.65,CC(C)CCCC(C)C(C)C,01000000000000000000000000010000010000000000000000000001000000000000000000000000100000000000000000010000000001000000000101000000
"2,3,6-trimethyl-3-ethylheptane",170.33844,646.41,0.432,469.15,CC(C)CCCCC(C)C(C)C,01000000000000000000000000010000010000000000000000000001000000000000000000000000100000000000000000010000000001000000000101000000
"2,3,6-trimethyl-4-ethylheptane",170.33844,634.39,0.462,463.15,CC(C)(Br)C(C)(C)Br,00000000100000000000100000000000010000000000000000000000000000000000000000000000010000001000000000000000000000000010000000000000
"2,3,6-trimethyl-5-ethylheptane",170.33844,638.5,0.462,466.15,CC(Br)C(C)(C)Br,01000000100000000000000000010000010000000000000010000000000000100000000000000000010010001000000000000000000000000010000000000000
"2,3,6-trimethylheptane",142.28468,604.1,0.403,429.16,CC(Br)C(C)Br,01000000000000000000000000010000010000000000000010000000000000100000000000000000000000001000000000000000000000000000000000000000
"2,3,6-trimethylnaphthalene",170.25416,775.49,0.492,550.15,CCCCC(Br)C(C)Br,01000000000000000000000000110000010000100000000010000000000000100000000000100000100000001000000000010000000000000000000100000000
"2,3,6-trimethylnonane",170.33844,641.61,0.491,471.15,CCCC(Br)C(C)Br,01000000000000000000000000110000010000100000000010000000000000100000000000100000100000001000000000010000000000000000000000000000
"2,3,6-trimethyloctane",156.31156,626.67,0.449,453.15,CCC(Br)C(C)Br,01000000100000000000000000010000010000100000000010000000000000100000000000100000100000001000000000000000000000000000000000000000
"2,3,6-trimethylphenol",136.19368,739.74,0.494,510.0,CC(Cl)C(Cl)=C,01000000000010000011000000010000110000010000000000000000000000000000000000000000000000100000000000001000000000000000000000000010
"2,3,6-trimethylpyridine",121.18208,653.0,0.376,444.75,OCC(Cl)CCl,01000000000000000011000000000000000000010000000000000000000000000000000000000000100001000000001000100000000000000010010000000000
"2,3,7-trimethylnonane",170.33844,645.7,0.491,474.15,CC(Cl)C(C)(C)Cl,01000000100000000011000001011000010100000000000000000000000000000000000000000000000000000000000000000000000000000010000000000000
"2,3,7-trimethyloctane",156.31156,625.29,0.449,452.15,CC(C)CCCC(C)C(C)C,01000000000000000000000000010000010000000000000000000001000000000000000000000000100000000000000000010000000001000000000101000000
"2,3,8-trimethylnonane",170.33844,644.34,0.491,473.15,CCCC(Cl)C(C)Cl,01000000000000000011000000110010010000100000000000000000000000000000000000000000100000000000000000010000000000000000000001000000
"2,3-butanediamine, (R*,R*)-(±)",88.15276,612.33,0.533,396.09,CCCCCC(Cl)C(C)Cl,01000000000000000011000000110010010000100000000000000000000000000000000000000000100000000000000000010000000000000000000101000000
"2,3-dibromo-2,3-dimethylbutane",243.96928,684.21,0.526,486.03,CCC(Cl)C(C)Cl,01000000100000000011000000010010010000100000000000000000000000000000000000000000100000000000000000000000000000000000000001000000
"2,3-dibromo-2-methylbutane",229.9424,668.37,0.377,444.01,ClCC(Cl)=C,00000000000010000001000000010000000000010000000000000000000000000000000000000000100001100000000000000000000000000000000000000010
"2,3-dibromobutane",215.91552,657.46,0.415,434.15,Cc1cccc(Cl)c1Cl,00000000000000000001000000000000010000000000000001000000001000001000000000000000010000100000000000001000000000110001000000000000
"2,3-dibromoheptane",257.99616,700.05,0.571,510.82,CCc1cc2ccccc2cc1CC,00000001000000000000000000000000010000100000000000000000000000011000010000000000110000100000000000001000000100000000000000000000
"2,3-dibromohexane",243.96928,684.21,0.526,469.15,CCc1cccc(O)c1CC,00000001000000000000000000000000010000110000000000000000000000001010010100000000110000100000000000001000000000000010000000000000
"2,3-dibromopentane",229.9424,668.68,0.448,451.65,CC(F)C(C)(C)F,01000000100000000000000000110000010000000000010000000000000000000000000000000000000000000000000000100000000000000010010000000000
"2,3-dichloro-1-butene",124.99704,640.0,0.302,385.15,CC(F)C(C)F,01000000100000000000000000110000010000000000000000000000000000000000000000000000000000000000000100000000000000000000000000000000
"2,3-dichloro-1-propanol",128.98544,647.0,0.699,457.15,CCC(F)C(C)F,01000000100000000000000000110000010000100000000000000000000000000000000000000000100000000000000100000000000000000000000000100000
"2,3-dichloro-2-methylbutane",141.0398,633.42,0.262,402.15,Cc1cc(C)c2CCC(C)(C)c2c1,00000000001000000000000000000011010010000000000000000000011010000000000000100000010000000000000000001000010100010000000000100000
"2,3-dichlorobutane, dl and meso",127.01292,599.0,0.268,392.65,Cc1ccc(C)c2c1CCC2(C)C,00000000001000010000000000000010010010000000000000000000011000000000000000100000010000100000000000001000010000010000000000100000
"2,3-dichlorohexane",155.06668,633.09,0.397,436.65,C1CC=CO1,00000000000000001000000000000010000000000000000000000010000000100000000010000000010000000000000000000000100000000000000000010000
"2,3-dichlorooctane",183.12044,672.06,0.485,479.15,CC(I)C(C)(C)I,01000000100000001000010000010000010000000000000000000010000000000000000000000000000000000000000000000000000000000010000000001000
"2,3-dichloropentane",141.0398,614.06,0.323,412.15,CC(I)C(C)I,01000000000000001000010000010000010000000000000000000000000000000000000000000000000100000000000000000000000000000000000000000000
"2,3-dichloropropene",110.97016,578.0,0.194,366.5,CCC(I)C(C)I,01000000100000001000010000010000010000100000000000000000000000000000000000000000100100000000000000000000100000000000000000000000
"2,3-dichlorotoluene",161.03004,710.0,0.343,480.65,CSc1cccc(C)c1C,01000000001000000000000000000000010000000000000000000000001100001000000000000000010000100000000000001000000000010000100000001000
"2,3-diethylnaphthalene",184.28104,812.35,0.537,585.41,CC(C)C(C)(O)CO,01000000100000000000000000010000010000010000000000000000000000000000000000000000100000000000001000000001000000000011100000000000
"2,3-diethylphenol",150.22056,719.7,0.541,505.0,CC(=C)C(C)=C,00000000000000000000000000000000010000010000000000000000100000000000000000000000000000100000000000000000000000000000000001000010
"2,3-difluoro-2-methylbutane",108.1312064,467.07,0.261,308.67,CC(CO)C(C)(C)O,01000100100000000000100000010000010000010000000000000000000000000000000000000000100000000000001000100000000000000010100000000000
"2,3-difluorobutane",94.1043264,487.02,0.277,320.15,CC(C)C(C)CO,01000000000000000000000000010000010000010000000000000000000000000000000000000000100000000000001000100000000001000000000001000000
"2,3-difluoropentane",108.1312064,491.0,0.321,330.0,CC(C)C(C)CO,01000000000000000000000000010000010000010000000000000000000000000000000000000000100000000000001000100000000001000000000001000000
"2,3-dihydro-1,1,4,6-tetramethyl-1H-indene",174.28592,749.21,0.468,525.62,CC(C)C(C)=C,01000000000000000000000000010000010000010000000000000000000000000000010000000001000000100000000000000000000000000000000001000010
"2,3-dihydro-1,1,4,7-tetramethyl-1H-indene",174.28592,749.21,0.468,525.62,CCCC(C)C(C)CO,01000000000000000000000000110000010000110000000000000000000000000000000000000000100000000000001000110000000000000000000001000000
"2,3-dihydrofuran",70.09104,524.0,0.226,327.65,CCCC(C)C(C)=C,01000000000000000000000000110000010000110000000000000000000000000000000000000001100000100000000010010000000000000000000001000010
"2,3-diiodo-2-methylbutane",323.94334,759.04,0.242,496.41,CCC(C)C(C)CO,01000000100000000000000000010000010000110000000000000000000000000000000000000000100000000000001000100000000000000000000001000000
"2,3-diiodobutane",309.91646,732.32,0.258,476.32,CCC(C)C(C)=C,01000000100000000000000000010000010000110000000000000000000000000000000000000001100000100000000010000000000000000000000001000010
"2,3-diiodopentane",323.94334,750.13,0.302,499.2,CC(C)(O)C(C)(C)O,00000000100000000000000000000000010000010000000000000000000010000000000000000000000000000000000000000000000000000010100000000000
"2,3-dimethyl-(1-thiaethyl)-benzene",152.26028,743.84,0.415,510.74,CC(C)(c1ccccc1)C(C)(C)c2ccccc2,00000000110000000000000000000000110000000000000000000000000000001000000000000000010000100000000000001000000000000010000000000000
"2,3-dimethyl-1,2-butanediol",118.17596,636.35,1.105,480.0,CCC(C)(O)C(C)(C)O,00000000100000001000000000000000010000110000000000000000000010000000000000000000100000000000000000000000000000000010100000000000
"2,3-dimethyl-1,3-butadiene",82.1454,526.0,0.214,341.93,CC(C)C(C)(C)S,01000000100000000000000000010100010000000000000000000000000000000000000000000000000000000000000000000101000000000110000000000000
"2,3-dimethyl-1,3-butanediol",118.17596,636.35,1.105,480.0,CC(C)C(C)(C)O,01000000100000000000100000010000010000010000000000000000000000000000000000000000000000000000000000000001000000000010100000000000
"2,3-dimethyl-1-butanol",102.17656,599.0,0.576,422.15,CC(C)=C(C)C,00000000000000000000000000000000010000010000000000000000000000000000000000000000000000000000000000000000000000000000000011000000
"2,3-dimethyl-1-butanol, (±)-",102.17656,581.8,0.582,417.65,CCC(C)(CO)C(C)C,01000000100000000000000000010000010000110000000000000000000000000010000000000000100000000000001000000001000000000011000000000000
"2,3-dimethyl-1-butene",84.16128,501.0,0.233,328.76,CCCCC(C)C(C)(C)O,01000100100000000000100000110000010000110000000000000000000000000000000000000000100000000000000000010000000000000010100100000000
"2,3-dimethyl-1-hexanol",130.23032,603.81,0.773,447.0,CCCCC(C)=C(C)C,00000000000000000000000000101000010000110000000000000000000000000000000000000000100000000000000000000000000000000000000111000000
"2,3-dimethyl-1-hexene",112.21504,561.0,0.325,383.65,CCCC(C)C(C)(C)O,01000100100000000000100000110000010000110000000000000000000000000000000000000000100000000000000000010000000000000010100000000000
"2,3-dimethyl-1-pentanol",116.20344,599.26,0.731,437.15,CCCC(C)=C(C)C,00000000000000000000000000101000010000110000000000000000000000000000000000000000100000000000000000000000000000000000000011000000
"2,3-dimethyl-1-pentene",98.18816,532.72,0.288,357.43,CCC(C)C(C)(C)O,01000100100000000000100000010000010000110000000000000000000000000000000000000000100000000000000000000000000000000010100000000000
"2,3-dimethyl-2,3-butanediol",118.17596,597.11,1.03,445.95,CCC(C)=C(C)C,00100000000000000000000000000000010000110000000000000000000000000000000000000000100000000000000000000000000000000000000011000000
"2,3-dimethyl-2,3-diphenylbutane",238.37268,805.0,0.521,589.0,CC(C)C(C)(CO)C(C)(C)C,01000000100000000000000000010000010000010000000000000000000000000000000000000000100000000000001011000001000000000011000000000000
"2,3-dimethyl-2,3-pentanediol",132.20284,695.12,1.069,525.85,CCC(CC)C(C)(CC)C(C)C,01000000100000000000000000010000110000110000000000000000001000000000000000000000100000000000000000000001000000000010000000000000
"2,3-dimethyl-2-butanethiol",118.24316,615.0,0.353,407.26,CCC(C)(CC)C(C)(C)O,00000000100000000000000000000000010000110000000000000000000010000000000000000000100000000000001000000000000000000010100000000000
"2,3-dimethyl-2-butanol",102.17656,564.4,0.496,391.75,CCCCC(C)(CC)C(C)C,01000000100000000000000000111000010000110000000000000000000000000010000000000000100000000000000000000001000000000010000100000000
"2,3-dimethyl-2-butene",84.16128,528.0,0.224,346.35,CCCCCC(C)(CC)C(C)C,01000000100000000000000000111000010000110000000000000000000000000010000000000000100000000000000000000001000000000010000100000000
"2,3-dimethyl-2-ethyl-1-butanol",130.23032,609.23,0.706,446.0,CCC(C)(CC)C(C)C,01000000100000000000000000010000010000110000000000000000000000000010000000000000100000000000000000000001000000000010000000000000
"2,3-dimethyl-2-heptanol",144.2572,612.62,0.748,455.0,CCCCC(C)(O)C(C)C,01000000100000000000000000111000010000110000000000000000000000000000000000000000100000000000000000000001000000000010100100000000
"2,3-dimethyl-2-heptene",126.24192,593.62,0.411,418.35,CCCC(C)(O)C(C)C,01000000100000000000000000111000010000110000000000000000000000000000000000000000100000000000000000000001000000000010100000000000
"2,3-dimethyl-2-hexanol",130.23032,591.82,0.706,433.25,CCCCC(C)(C(C)C)C(C)C,01000000100000000000000000111000010000100000000000000000001000000000000000000000100000000000000000000001000000000010000100000000
"2,3-dimethyl-2-hexene",112.21504,577.66,0.326,394.92,CCCC(C)(C(C)C)C(C)C,01000000100000000000000000111000010000100000000000000000001000000000000000000000100000000000000000000001000000000010000000000000
"2,3-dimethyl-2-pentanol",116.20344,571.87,0.662,412.15,CCCCCC(C)(O)C(C)C,01000000100000000000000000111000010000110000000000000000000000000000000000000000100000000000000000000001000000000010100100000000
"2,3-dimethyl-2-pentene",98.18816,553.47,0.282,370.55,CCC(C)(O)C(C)C,01000000100000000000000000010000010000110000000000000000000000000000000000000000100000000000000000000001000000000010100000000000
"2,3-dimethyl-2-tert-butyl-1-butanol",158.28408,628.77,0.693,466.0,CCC(CC)(CC)C(C)C(C)C,01000000000001000000000000010000010000110000000000000000000000000000000000000000100000000000000000000000000001010010000000000000
"2,3-dimethyl-3,4-diethylhexane",170.33844,657.43,0.432,477.15,CCCC(CC)C(C)C(C)C,01000000100000000000000000110000010000100000000000000000000000000000000000000000101000000000000000010100000001000000000000000000
"2,3-dimethyl-3-ethyl-2-pentanol",144.2572,627.54,0.682,461.0,CCCCC(CC)C(C)C(C)C,01000000100000000000000000110000010000100000000000000000000000000000000000000000101000000000000000010100000001000000000100000000
"2,3-dimethyl-3-ethylheptane",156.31156,630.56,0.419,453.15,CCc1ccc(O)c(C)c1C,00000001000000000000000000000000010000110000000000000000001000000010010100000000110000100000000000001000000000000000000000001000
"2,3-dimethyl-3-ethyloctane",170.33844,650.77,0.461,475.15,CCCC(C(C)C)C(C)C(C)C,01000000000000000000000000110000010000100000000000000000000000001000000000000000100000000000000000010100000001000000000000000000
"2,3-dimethyl-3-ethylpentane",128.2578,606.8,0.349,417.86,CCCC(CCC)C(C)C(C)C,01000000000000000000000000110000010000100000000000000000000000000000000000000000101000000000000000010100000001000000000000000000