name,molweight,critical temperature (K),acentric factor,boiling point (K),SMILES,ECFP_Bits
decyl mercaptan,174.35068,696.0,0.587,512.35,CCCC[S](=O)(=O)CCCC,00000000001010000000000000100000010000100000000000000000000000000000100000000000100000000000001001000000000000000000000100000000
decyl propanoate,214.34824,707.6,0.835,555.06,CCCCNCCCC,10000000000000000000000000110000010000100000000000000000000000000000000000000000100000000000000000000000000010000000000100000000
decylamine,157.29936,663.0,0.666,493.65,ClC(Cl)C=O,01000000001000000011000000000000000000000000000000000010000000000000000000000000001000000000000000000000000010000000000000001000
decylbenzene,218.38244,753.0,0.68,571.04,OC(=O)C(Cl)Cl,01000100001000000011000000000000000000010000000000001000000000000100000000000000000000000000000000000000000000000000000000000100
decylcyclohexane,224.43008,751.25,0.663,570.75,ClC(Cl)C(Cl)=O,01000000001010000011000000000000000000010000000000000000000000000100000000000000000000000000100000000000000000000000000000000100
decylcyclopentane,210.4032,730.64,0.604,552.54,ClC(Cl)(Cl)c1ccccc1,00000000010000000001000000000000000100000000000000000000000000001000000000000010010000100000000000001000000000000010000000000000
dehydroabietic acid,314.468,828.0,0.915,645.0,CCC=C(Cl)Cl,00000000000010000001000000000000010000110000001000000010000000000000000000000000100000000000001100000000000000000000000000000000
dehydroabietylamine,285.47288,863.0,0.742,660.0,FC(F)(Cl)Cl,00000001100000000001000000000000000100000000010000000000000000000000000000000000000000000000000000000000000000000010000000000000
di(ethylene glycol) hexyl ether,190.28288,684.0,1.111,532.25,C[Si](C)(Cl)Cl,00000000000000001001000000000000010000000001000000000000000000000000000000000000000000000000000000000010000000000000000000100000
"di(propylene glycol) methyl ether acetate, isomers",190.23952,647.0,0.702,482.45,Cl[Si](Cl)(c1ccccc1)c2ccccc2,00001000000000000001000000000000000000000001000000000010000000001000000000000000010000100000000000001000000000000000000000100000
"di(propylene glycol) propyl ether, isomers",176.256,629.0,0.963,485.45,CC(Cl)Cl,01000000000000000011000000010000010000000000000000000000000000000000000100000000000000000000000000000000000000000000000000000000
"di(propylene glycol) tert-butyl ether, isomers",190.28288,667.0,0.997,515.0,ClC(Cl)=C,00000000000010000001000000000000000000010000000000000000000000100000000000000000000000100000000000000000000000000000000000000010
di-n-octyl adipate,370.57308,830.0,1.048,678.0,FC(Cl)Cl,01000000100000000011000000100000000000000000000000000000000010000000000000000000000000000000000000000000000000000000000000000000
di-pentyl ether,158.28408,622.0,0.601,459.9,ClCCl,00000001000000000001000000000000000000000000000000000000000000000000000000000000100001000000000000000000000000000000000000000000
di-propylamine,101.19184,550.0,0.45,382.0,ClC(Cl)[SiH2]c1ccccc1,01000000000000000011000000010000000000000000000000000000000001001000000000000000010000100001000000001000000000000000010000000000
di-sec-butyl ether,130.23032,559.0,0.432,394.2,CCCCC(Cl)Cl,01000000000000000011000000100000010000100000000000000000000000000000000000000000100000000000000000010000100000000000000100000000
"di-sec-butyl ether, (±)",130.23032,563.33,0.415,393.65,CCC(Cl)Cl,01000000100000000011000000000000010000100000000000000000000000000000000000000000100000000000000000000000100000000000000000000000
di-sec-butyl sulfide,146.29692,658.04,0.447,438.15,CC=C(Cl)Cl,00000000000010000001000000000000010000010000000000000010000000000000000000001000000000000000001000000000000000000000000000000000
di-sec-butylamine,129.2456,601.45,0.5,407.15,[SiH3]CC=C(Cl)Cl,00000000000010000001000000000000000000010000000000000010000000000001000110000000100000000000001100000000000000000000000000000000
di-t-butyl peroxide,146.22972,547.0,0.403,384.15,CC(C)(OOC(C)(C)c1ccccc1)c2ccccc2,10000000110000000000000000000000010000000000000000000001000000001000000100000000010000100000000000001000000000000010000000000000
di-tert-butyl disulfide,178.36292,704.16,0.529,513.34,C1CCC(CC1)SC2CCCCC2,00001000000010000000000000000010000000100000010000000000000000000000000000000000000000000000000000000000000000000000100000010000
di-tert-butyl ether,130.23032,550.0,0.346,380.4,C1CCC(CC1)NC2CCCCC2,10001000000000000000000000000010000000000000010000000000000000000000000000000000000000000000100000100000000000000000000000010000
di-tert-butyl ketone,142.24132,629.65,0.541,425.15,C1CCC(CC1)CC2CCCCC2,00001000000000000000000000000110000000000000010000000000000000000000000000000000100000000000000000000000000000000000000000010000
di-tert-butyl sulfide,146.29692,658.04,0.447,422.25,CCCCCCCCCCSSCCCCCCCCCC,10000000000000000000000000100010010000100000000000000000000000000000000000000000100000000000000000000000000000000000100100000000
di-tert-butylsulfone,178.29572,767.0,0.688,521.05,CCCCCCCCCCOCCCCCCCCCC,00000000000001000000000000100000010000100000000000000001000000000000000010000000100000000000000000000000000000000000000100000000
diacetone alcohol,116.16008,606.0,0.768,441.05,CCCCCCCCCCOC(=O)c1ccccc1C(=O)OCCCCCCCCCC,00000000001001000101000000100000010000110000000000000001000000001000000100000000110000100000000000001000000000000000000100000100
diallyl maleate,196.20288,693.0,0.789,520.0,CCCCCCCCCCSCCCCCCCCCC,00000000000000000000000000100010010000100000000000000000010000000000000000000000100000000000000000000000000000000000100100000000
diamantane,188.3128,791.0,0.163,529.0,CCCCCCCCCCNCCCCCCCCCC,10000000000000000000000000110000010000100000000000000000000000000000000000000000100000000000000000000000000010000000000100000000
dibenzofuran,168.19492,824.0,0.399,558.31,OCCNCCO,10000000000000000000000000010000000000010000000000000000000000000000000000000000100000000100001000000000000010000000000000000000
dibenzopyrrole,167.2102,899.0,0.494,627.86,CCOCOCC,00000000000000000000000000000000010010100000000000000001000000000000000010000000100000100000000000000000000000000000000000000000
dibenzothiophene,184.26152,897.0,0.398,604.61,CCOC(=O)OCC,00000000001000000001000000000000010000110000000000000001000000000000000000000000100000100000000000000000000000000000010000000100
dibenzyl ether,198.26456,777.0,0.591,561.45,CCSSCC,10000000000000000000000000000000010001100000000000000000000000000000000000000000100000000000000000000000000000000000100000000000
diborane,27.66964,289.8,0.125,180.65,CCOCC,00000000000000000000000000000000010000100000000000000001000000000000000010000000100000100000000000000000000000000000000000000000
diborane hydrobromide,106.5657,466.98,0.142,289.45,CCC(=O)CC,00100000001000000000000010000000010000110000000000000000000000000000000000000000100000000000000000000000000000000000000000000100
dibromobenzene,235.90576,761.0,0.293,493.65,CCOC(=O)\C=C/C(=O)OCC,00000000001000000001000000000001010000110000000001000011000000000000000000000000100000100000000000000000000000000000000000000100
dibromodifluoromethane,209.8158064,478.0,0.108,295.94,CCOC(=O)CC(=O)OCC,10000000001000000001000000000000010000110000000000000001000000000000000000000000100000100000000000000000001000000000000000000100
dibromomethane,173.83488,611.0,0.21,370.1,CCOC(=O)C(=O)OCC,00000000001000000001000000000000010000110000000000000001000000000000000001000000100000100000000000000000000000000000000000000100
dibutyl disulfide,178.36292,704.16,0.529,504.36,CCOC(=O)c1ccccc1C(=O)OCC,00000000001000000101000000000000010000110000000000000001000000001000000100000000110000100000000000001000000000000000000000000100
dibutyl ether,130.23032,584.1,0.448,414.15,CCOC(=O)CCC(=O)OCC,00000000001000000001000000001000010000110000000000000001000000000000000000000000100000100000000000000000001000000000000000000100
dibutyl maleate,228.2884,716.0,0.899,553.15,CCO[S](=O)(=O)OCC,00000000001000000000000000000000010000100100000000000001000000000000100000000000100000100001001000000000000000000000000000000000
dibutyl phthalate,278.34828,781.0,0.957,613.15,CCSCC,00000000000000000000000000000000010001100000000000000000010000000000000000000000100000000000000000000000000000000000100000000000
dibutyl sulfate,210.29452,814.0,0.345,525.0,CCO[S](=O)OCC,00000000001010000000000000000000010000100001000000001001000000000000000000000000100000100000000000000000000000000100000000000000
dibutyl sulfide,146.29692,650.0,0.394,455.15,CCNCC,10000000000000000000000000000000010000100000000000000000000000100000000000000000100000000000000000000000000010000000000000000000
dibutyl sulfone,178.29572,767.0,0.688,564.0,CCc1ccccc1CC,00000001000000000000000000000000010000100000000000000000000000001000010000000000110000100000000000001000000000000000000000000000
dibutylamine,129.2456,602.3,0.53,432.0,CCCCN(CC)CC,00000000000000000000000000100001010010100000000000000000000000000000000000000000100000000000000000000000000000000100000100010000
dichloroacetaldehyde,112.94268,555.0,0.344,362.0,C(=O)C(Cl)Cl,01000000001000000011000000000000000000000000000000000010000000000000000000000000001000000000000000000000000010000000000000001000
dichloroacetic acid,128.94208,686.0,0.555,467.15,CCCCCCCCCCN(CC)CC,00000000000000000000000000100001010010100000000000000000000000000000000000000000100000000000000000000000000000000100000100010000
dichloroacetyl chloride,147.38744,579.0,0.371,382.15,CCCCCCCCCCCCN(CC)CC,00000000000000000000000000100001010010100000000000000000000000000000000000000000100000000000000000000000000000000100000100010000
dichlorobenzyl chloride,195.4748,737.0,0.26,396.15,CCCCCCCCCCCCCCCCCCCCN(CC)CC,00000000000000000000000000100001010010100000000000000000000000000000000000000000100000000000000000000000000000000100000100010000
dichlorobutene,124.99704,640.0,0.302,400.83,OCCOCCO,00000000000001000000000000000000000000010000000000000001000000000000000010000000100000000100001000000000000000000000000000000000
dichlorodifluoromethane,120.9132064,384.95,0.18,243.36,CCCCOCCOCCOCCCC,00000000000001000000000000100000010000100000000000000001000000000000000010000000100000000000000000000000000000000000000100000000
dichlorodimethylsilane,129.06054,520.35,0.268,343.35,CCOCCOCCOCC,00000000000001000000000000000000010000100000000000000001000000000000000010000000100000100000000000000000000000000000000000000000
dichlorodiphenylsilane,253.2023,814.0,0.428,577.25,COCCOCCOC,00000000000001000000000000000000010000000000000000000001000000000000000011000000100000000000000000000000000001000000000000000000
dichloroethane,98.95916,542.0,0.266,343.52,CCOCCOCCOC(C)=O,00000000001101000001000000000000010000110000000000000001000000000000000010000000100000100000000000000000000000000000000001000100
dichloroethylene,96.94328,505.67,0.267,333.15,CCCCOCCOCCO,00000000000001000000000000100000010000110000000000000001000000000000000010000000100000000100001000000000000000000000000100000000
dichlorofluoromethane,102.9227432,451.58,0.205,282.05,CCCCOCCOCCOC(C)=O,00000000001101000001000000100000010000110000000000000001000000000000000010000000100000000000000000000000000000000000000101000100
dichloromethane,84.93228,510.0,0.199,312.9,CCCOCCOCCO,00000000000001000000000000100000010000110000000000000001000000000000000010000000100000000100001000000000000000000000000000000000
dichloromethylphenylsilane,191.13142,689.0,0.402,477.35,NCCNCCN,10000000000000000001000000010000000000000000000010000000000000000000000000000000100001000000000000000000000010000000000000000000
dichloropentane,141.0398,622.42,0.318,403.15,CCCCCCCCCCCCCCCCCCCCCN(CC)CC,00000000000000000000000000100001010010100000000000000000000000000000000000000000100000000000000000000000000000000100000100010000
dichloropropane,112.98604,568.62,0.249,369.75,CCCCCCCCCCCCCCCCCN(CC)CC,00000000000000000000000000100001010010100000000000000000000000000000000000000000100000000000000000000000000000000100000100010000
dichloropropylene,110.97016,577.0,0.206,364.52,CCCCCCCN(CC)CC,00000000000000000000000000100001010010100000000000000000000000000000000000000000100000000000000000000000000000000100000100010000
dichlorovinylmethylsilane,141.07154,544.1,0.293,366.95,CCCCCCCCCCCCCCCCN(CC)CC,00000000000000000000000000100001010010100000000000000000000000000000000000000000100000000000000000000000000000000100000100010000
dicumyl peroxide,270.37148,884.0,0.45,669.0,CCCCCCN(CC)CC,00000000000000000000000000100001010010100000000000000000000000000000000000000000100000000000000000000000000000000100000100010000
dicyclohexyl sulfide,198.37268,802.0,0.396,559.0,CCN(CC)C(C)C,01000000000000000000000000010000011010100000000000000000000000000000100000000000100000000000000000000000000000000100000000000000
dicyclohexylamine,181.32136,737.0,0.513,529.0,CCCCCCCCCCCCCCCCCCCN(CC)CC,00000000000000000000000000100001010010100000000000000000000000000000000000000000100000000000000000000000000000000100000100010000
dicyclohexylmethane,180.33356,749.48,0.385,525.95,CCCCCCCCCN(CC)CC,00000000000000000000000000100001010010100000000000000000000000000000000000000000100000000000000000000000000000000100000100010000
didecyl disulfide,346.68548,820.08,0.83,663.16,CCCCCCCCCCCCCCCCCCN(CC)CC,00000000000000000000000000100001010010100000000000000000000000000000000000000000100000000000000000000000000000000100000100010000
didecyl ether,298.55288,730.8,0.795,590.0,CCCCCCCCN(CC)CC,00000000000000000000000000100001010010100000000000000000000000000000000000000000100000000000000000000000000000000100000100010000
didecyl phthalate,446.67084,905.0,0.891,736.0,CCCCCCCCCCCCCCCN(CC)CC,00000000000000000000000000100001010010100000000000000000000000000000000000000000100000000000000000000000000000000100000100010000
didecyl sulfide,314.61948,832.33,0.795,645.0,CCCCCN(CC)CC,00000000000000000000000000100001010010100000000000000000000000000000000000000000100000000000000000000000000000000100000100010000
didecylamine,297.56816,782.3,0.949,632.15,CCCN(CC)CC,00000000000000000000000000100001010010100000000000000000000000000000000000000000100000000000000000000000000000000100000000010000
didodecylamine,353.67568,827.88,0.732,676.15,CCCCCCCCCCCCCCN(CC)CC,00000000000000000000000000100001010010100000000000000000000000000000000000000000100000000000000000000000000000000100000100010000
diethanolamine,105.13688,736.6,0.953,541.54,CCCCCCCCCCCCCN(CC)CC,00000000000000000000000000100001010010100000000000000000000000000000000000000000100000000000000000000000000000000100000100010000
diethoxymethane,104.14908,524.0,0.43,360.65,CCCCCCCCCCCN(CC)CC,00000000000000000000000000100001010010100000000000000000000000000000000000000000100000000000000000000000000000000100000100010000
diethyl carbonate,118.1326,576.0,0.486,399.95,FCF,00000000100001000000000000000000000000000000000000000000000000000000000000000000100000010000000000000000000000000000000000000000
diethyl disulfide,122.2554,642.0,0.347,427.13,[GeH3][GeH3],00000000000001000000000000000000000000000000000000000000000000100000000000000000000000000000000000000000000000000000000000000000
diethyl ether,74.1228,466.7,0.281,307.58,OC(=O)COCC(O)=O,00000100001000000000000000000000000000010000000000000001000000000000000011000000100010000000000000000000000000000000000000000100
diethyl ketone,86.1338,560.9,0.345,375.14,CCCCCCCSSCCCCCCC,10000000000000000000000000100010010000100000000000000000000000000000000000000000100000000000000000000000000000000000100100000000
diethyl maleate,172.18088,680.0,0.666,498.15,CCCCCCCOCCCCCCC,00000000000001000000000000100000010000100000000000000001000000000000000010000000100000000000000000000000000000000000000100000000
diethyl malonate,160.16988,653.0,0.616,472.05,CCCCCCCOC(=O)c1ccccc1C(=O)OCCCCCCC,00000000001001000101000000100000010000110000000000000001000000001000000100000000110000100000000000001000000000000000000100000100
diethyl oxalate,146.143,618.0,0.808,458.61,CCCCCCCSCCCCCCC,00000000000000000000000000100010010000100000000000000000010000000000000000000000100000000000000000000000000000000000100100000000
diethyl phthalate,222.24076,757.0,0.761,567.15,CCCCCCCNCCCCCCC,10000000000000000000000000110000010000100000000000000000000000000000000000000000100000000000000000000000000010000000000100000000
diethyl succinate,174.19676,663.0,0.67,490.15,CCCCCCOC(=O)CCCCC(=O)OCCCCCC,00000000001001000001000000101000010000110000000000000001000000000000000000000000100000000000000000000000001000000000000100000100
diethyl sulfate,154.187,749.0,0.387,482.65,CCCCCCSSCCCCCC,10000000000000000000000000100010010000100000000000000000000000000000000000000000100000000000000000000000000000000000100100000000
diethyl sulfide,90.1894,557.15,0.29,365.25,CCCCCCOCCCCCC,00000000000001000000000000100000010000100000000000000001000000000000000010000000100000000000000000000000000000000000000100000000
diethyl sulfite,138.1876,624.0,0.507,431.15,CCCCCCSCCCCCC,00000000000000000000000000100010010000100000000000000000010000000000000000000000100000000000000000000000000000000000100100000000
diethylamine,73.13808,496.6,0.304,328.6,CCCCCCNCCCCCC,10000000000000000000000000110000010000100000000000000000000000000000000000000000100000000000000000000000000010000000000100000000
diethylbenzene,134.22116,664.65,0.378,455.05,ICI,00000000010000000000010000000000000000000000000000000000000000000000000000000000100000010000000000000000000000000000000000000000
diethylbutylamine,129.2456,577.33,0.481,409.15,CC(C)CC(=O)CC(C)C,01000000001000000000000010010000010000010000000000000001000000000000000000000000100000000000000000000000000000000000000000000100
diethylcyclohexane; (mixed isomers),140.2688,667.0,0.274,447.15,CC(C)COC(=O)c1ccccc1C(=O)OCC(C)C,01000000001000000101000000010000010000010000000000000001000000001000000100000000110000100000000000001000000000000000001000000100
diethyldecylamine,213.40688,675.16,0.717,520.15,CC(C)CSCC(C)C,01000000000000000000000000010000010000000000000000000001010000000000010000000000100000000000000000000000000000000000100000000000
diethyldodecylamine,241.46064,700.59,0.771,550.15,CC(C)C[S](=O)(=O)CC(C)C,01000000001010000000000000010000010010000000000000000001000000000000100000000000100000000000001000000000000000000000000000000000
diethyleicosylamine,353.67568,791.74,0.737,646.15,CC(C)CNCC(C)C,11000000000000000000000000010000010000000000000000000001000000000000000000000000100000000000001000000000000010000000000000000000
diethylene glycol,106.1216,744.6,0.622,517.95,CC(C)CCCCCCOC(=O)c1ccccc1C(=O)OCCCCCCC(C)C,01000000001001000101000000010000010000010000000000000001000000001000000100000000110000100000000000011000000000000000000100000100
diethylene glycol dibutyl ether,218.33664,680.0,0.846,529.15,CC(C)CCCCCOC(=O)c1ccccc1C(=O)OCCCCCC(C)C,01000000001001000101000000010000010000010000000000000001000000001000000100000000110000100000000000011000000000000000000100000100
diethylene glycol diethyl ether,162.22912,624.0,0.681,462.15,CC(C)CCSSCCC(C)C,11000000000000000000000000010010010000000000000000000001000000000000000000000000100000000000000000010000000000000000100000000000
diethylene glycol dimethyl ether,134.17536,608.0,0.577,435.65,CC(C)CCOCCC(C)C,01000000000001000000000000010000010000000000000000000001000000000000000010000000100000000000000000010000000000000000000000000000
diethylene glycol ethyl ether acetate,176.21264,660.0,0.715,490.55,CC(C)CCSCCC(C)C,01000000000000000000000000010010010000000000000000000001010000000000000000000000100000000000000000010000000000000000100000000000
diethylene glycol monobutyl ether,162.22912,692.3,0.655,504.15,CC(C)CCNCCC(C)C,11000000000000000000000000010000010000000000000000000001000000000000000000000000100000000000000000010000000010000000000000000000
diethylene glycol monobutyl ether acetate,204.2664,679.0,0.842,518.45,CC(C)SSC(C)C,01000000000000000000000000010000010000000000000000000000000000000000010000000000000000000000000000000000000000000000100000000000
diethylene glycol monopropyl ether,132.20284,679.0,0.611,487.99,CC(C)OC(C)C,01000000000000000000000000010000010000000000000000000001001000000000000000000000000000000000000000000001000000000000000000000000
diethylene triamine,103.16744,676.0,0.7,480.25,CC(C)SC(C)C,01100000000000000000000000010000010000000000000000000000000000000000010000000000000000000000000000000000000000000000100000000000