name,molweight,critical temperature (K),acentric factor,boiling point (K),SMILES,ECFP_Bits
2-bromobutane,137.01946,567.0,0.268,364.37,CCC(C)Br,01000000100000000000000000010000010000100000000000000000000000100000000000000000100000001000000000000000001000000000000000000000
"2-bromobutane, (±)",137.01946,561.05,0.289,364.45,CC=CC#N,00000000000000000000001000000100011000000000000001000010000000000000000000001000100000000000000000000000100000000000000000000000
2-bromodecane,221.18074,698.43,0.611,513.75,CCC=Cc1ccccc1,00000000000000000000000000000000010000100000001000000010000000001001000000001000110000100000000000001000000000000100000000000000
2-bromododecane,249.2345,726.55,0.69,549.05,CCCCOCCO,00000000000001000000000000100000010000110000000000000001000000000000000010000000100000000100001000000000000000000000000100000000
2-bromoheptane,179.1001,651.0,0.444,439.15,CCCCOCCOC(C)=O,00000000001101000001000000100000010000110000000000000001000000000000000010000000100000000000000000000000000000000000000101000100
2-bromohexane,165.07322,612.0,0.404,417.05,CCCCC1C(C)CCCC1(C)C,00001000001000000000000000100110010010100000010000000000000000001001000000000010100000000000000000000000000000000000000100110000
"2-bromooctane, (±)-",193.12698,665.09,0.524,461.65,CCCCCCC(CO)CCCC,01000000000010000000000000100000010000110000000000000000000000000000000000000000100000000000001000110000000000000000000100000000
2-bromopentane,151.04634,585.36,0.359,390.55,CCCCc1cc(C)ccc1O,00000000000000000000000000100001010000110000000000000000001000000010010100000000110000100001000000001000000100000000000100000000
2-bromopropane,122.99258,532.0,0.243,332.56,CCCCC1CCc2ccccc2C1,00000000000000000000000000100110010000100000010000000000000000001000000000100000110010100000000000001001000000000000000100010000
"2-butanamine, (.+/-.)-",73.13808,503.5,0.331,335.88,CCCCc1ccc2ccccc2c1,00000000000000000000000000100000010000100000000000000000000000011000000000000000110000100011000000001000000100000000000100000000
2-butanethiol,90.1894,553.0,0.242,358.15,CCCCCCC(CCCC)C(O)=O,01000100001000000000000000100000010000110000000000001000000000000000000000000000100001000000000000010000000000000000000100000100
2-buten-1-yl acetate,114.1442,569.0,0.434,405.15,CCCCc1ccccc1O,00000000000000000000000000100000010000110000000000000000000000001010010100000000110000100001000000001000000000000000000100000000
2-butene; (cis+trans),56.10752,425.43,0.199,275.5,FC(Cl)C(F)(F)F,01000000100000000011000000100000000000000000010000000000000000000000000000000000000000000000000100000000000000000010000000000000
2-butenenitrile,67.09044,573.0,0.364,393.65,FC(F)(F)CCl,00000000100000000001000000000000000000000000010000000000000000000000000000000000100001000000000000000000001000000010000000000000
2-butenylbenzene,132.20528,682.45,0.356,449.15,FC(F)CCl,01000000100000000001000000100000000000000000000000000000000000000000000000000000100001000100000000000000000000000000010000000000
2-butoxyethanol,118.17596,633.9,0.521,444.47,FC(F)=CCl,00000000100000000001000000000010000000010000000000000010000000000000000000000000000000000000000000000000000000000000000100001001
2-butoxyethyl acetate,160.21324,641.2,0.56,465.15,CCC(Cl)=C,00100000000010000001000000000000010000110000000000000000000000000000000000000000100000100000000000000000000000000000000000000010
"2-butyl-1,1,3-trimethylcyclohexane",182.34944,708.63,0.498,510.52,CCCCCC(Cl)=C,00000000000010000001000000101000010000110000000000000000000000000000000000000000100000100000000000000000000000000000000100000010
2-butyl-1-octanol,186.33784,712.9,0.635,519.65,CCCCC(Cl)=C,00000000000010000001000000101000010000110000000000000000000000000000000000000000100000100000000000000000000000000000000100000010
2-butyl-4-methylphenol,164.24744,751.0,0.569,501.15,CCCCCCC(Cl)=C,00000000000010000001000000101000010000110000000000000000000000000000000000000000100000100000000000000000000000000000000100000010
"2-butyl-[1,2,3,4-tetrahydronaphthalene]",188.3128,764.18,0.511,551.65,CCCC(Cl)=C,00000000000010000001000000101000010000110000000000000000000000000000000000000000100000100000000000000000000000000000000000000010
2-butylnaphthalene,184.28104,780.96,0.533,562.16,CC(Cl)=C,00000000000010000001000000000000010000010000000000000000000000000000000000000000000000100000000000000000100000000000000001000010
2-butyloctanoic acid,200.32136,734.0,0.967,503.15,CC(C)(C)C(C)(C)Cl,00000000100000000001000000000000010100000000000000000100000000000000000000000000000000000000000001000000000000000010000000000000
2-butylphenol,150.22056,713.69,0.542,508.15,CC(C)C(C)(C)Cl,01000000100000000001000001010000010100000000000000000000000000000000000000000000000000000000000000000001000000000010000000000000
"2-chloro-1,1,1,2-tetrafluoroethane",136.4762528,395.65,0.288,261.05,CCC(C)C(C)(C)Cl,01000100100000000001000001010000010100100000000000000000000000000000000000000000100000000000000000000000000000000010000000000000
"2-chloro-1,1,1-trifluoroethane",118.4857896,430.0,0.247,279.25,CC(C)(C)CC(C)(C)Cl,00000000100000000001000000000000010100000000000000000000000000000000000000000000100000001000000000000100000000000010001000000000
"2-chloro-1,1-difluoroethane",100.4953264,477.91,0.271,308.25,CC(C)CC(C)(C)Cl,01000000100000000001000000010000010100000000000000000001010000000000000000000000100000001000000000000000000000000010000000000000
"2-chloro-1,1-difluoroethylene",98.4794464,400.55,0.212,254.55,CC(C)CCC(C)(C)Cl,01000000100000000001000000011000010100000000000000000001000000000000000000000000100000001000000000010000000000000010000000000000
2-chloro-1-butene,90.55228,515.18,0.237,331.65,CC=C(C)Cl,00000000100010000001000000000000010000010000000000000010000000000000000000001000000000000000000000000000000000000000000001000000
2-chloro-1-heptene,132.63292,613.52,0.385,412.15,CCCCCC(C)(C)Cl,00000000100000000001000000101000010100100000000000000000000000000000000000000000100000001000000000000000000000000010000100000000
2-chloro-1-hexene,118.60604,583.61,0.341,386.15,CCCCC(C)(C)Cl,00000000100000000001000000101000010100100000000000000000000000000000000000000000100000001000000000000000000000000010000100000000
2-chloro-1-octene,146.6598,640.48,0.43,442.15,CCCC(C)(C)Cl,00000000100000000001000000101000010100100000000000000000000000000000000000000000100000001000000000000000000000000010000000000000
2-chloro-1-pentene,104.57916,547.93,0.281,361.15,CC(C)(C)Cl,00000000100000000001000000000000010100000000000000000000000000000000000000000000000000000000000000000000000000000011000000000000
2-chloro-1-propene,76.5254,478.0,0.152,295.8,CCCCCC=C(C)Cl,00000000100010000101000000100000010000110000000000000010000000000000000000000000100000000000000100000000000000000000000101000000
"2-chloro-2,3,3-trimethylbutane",134.6488,621.08,0.418,413.42,CCC=C(C)Cl,00000000100010000001000000000000010000110000001000000010000000000000000000000000100000000000000100000000000000000000000001000000
"2-chloro-2,3-dimethylbutane",120.62192,581.14,0.254,385.15,CC(Cl)C(C)(C)C,01000000100000000011000000011000010000000000000000000000000000000000000000000000000000000000000000000000000001000010000000000000
"2-chloro-2,3-dimethylpentane",134.6488,621.08,0.418,413.42,CC(C)C(Cl)=C,01000000000010000001000000010000110000010000000000000000000000000000010000000000000000100000000000000000000000000000000000000010
"2-chloro-2,4,4-trimethylpentane",148.67568,642.41,0.462,445.15,CC(C)=C(C)Cl,00000000000010000001000000000000010000010000000000000000000100000000000000000000000000000000000000000000000000000000000011000000
"2-chloro-2,4-dimethylpentane",134.6488,621.08,0.418,401.15,CCC(C)C(C)Cl,01000000100000000011000000010000010000100000000000000000000000000000000000000000100000000000000000000000000000000000000001000000
"2-chloro-2,5-dimethylhexane",148.67568,642.41,0.462,442.45,CC(C)CC(C)Cl,01000000000000000011000000010000010000001000000000000001000000000000000000000000100000010000000000000000000000000000000000000000
2-chloro-2-butene,90.55228,532.24,0.242,337.65,CC(C)CCC(C)Cl,01000000000000000011000000010000010000000000000000000001000000000000000000000000100000010000000000010000000000000000000000000000
2-chloro-2-methylheptane,148.67568,642.41,0.462,442.45,CC(C)CCCC(C)Cl,01000000000000000011000000010000010000000000000000000001000000000000000000000000100000010000000000010000000000000000000100000000
2-chloro-2-methylhexane,134.6488,621.08,0.418,408.15,CCCCC(C)(C)Cl,00000000100000000001000000101000010100100000000000000000000000000000000000000000100000001000000000000000000000000010000100000000
2-chloro-2-methylpentane,120.62192,575.46,0.283,384.65,CCCC(C)(C)Cl,00000000100000000001000000101000010100100000000000000000000000000000000000000000100000001000000000000000000000000010000000000000
2-chloro-2-methylpropane,92.56816,507.0,0.191,323.75,CC(C)(C)Cl,00000000100000000001000000000000010100000000000000000000000000000000000000000000000000000000000000000000000000000011000000000000
2-chloro-2-pentene,104.57916,561.69,0.275,369.15,CCC(C)Cl,01000000100000000011000000010000010000100000000000000000000000000000000000000000100000010000000000000000000000000000000000000000
"2-chloro-3,3-dimethylbutane",120.62192,579.63,0.254,384.15,CCC(C)Cl,01000000100000000011000000010000010000100000000000000000000000000000000000000000100000010000000000000000000000000000000000000000
2-chloro-3-methyl-1-butene,104.57916,555.9,0.252,363.15,OCCCl,00000000000000000001000000000000000000010000000010000000000000000000000000000000100001000100001000000000000000000000000000000000
2-chloro-3-methyl-2-butene,104.57916,563.35,0.247,367.15,CCCCCC(C)Cl,01000000000000000011000000110000010000100000000000000000000000000000000000000000100000010000000000010000000000000000000100000000
2-chloro-3-methylpentane,120.62192,563.86,0.314,380.0,CCCCC(C)Cl,01000000000000000011000000110000010000100000000000000000000000000000000000000000100000010000000000010000000000000000000100000000
2-chloro-4-methylpentane,120.62192,572.99,0.314,386.15,Clc1ccc2ccccc2c1,00000000000000000001000000000000000000000000000001000000000000011000000000000000010000101000000000001000000100000000000000000000
2-chloro-5-methylhexane,134.6488,621.08,0.418,411.15,CCCCCCCC(C)Cl,01000000000000000011000000110000010000100000000000000000000000000000000000000000100000010000000000010000000000000000000100000000
2-chloro-6-methylheptane,148.67568,642.41,0.462,442.45,CCCCCCC(C)Cl,01000000000000000011000000110000010000100000000000000000000000000000000000000000100000010000000000010000000000000000000100000000
2-chloro-cis-2-butene,90.55228,530.28,0.227,339.95,CC(C)Cl,01000000000000000011000000010000010000000000000000000000000000000000000000000000000000000000000000000000000000000000000000000000
2-chloro-cis-2-pentene,104.57916,556.15,0.271,365.15,CCCCCCCCC(C)S,01000000000000000000000000110000010000100000000000000000000000000000000000000000110000000000000000010100000010000000000100000000
2-chloro-trans-2-butene,90.55228,523.73,0.227,335.75,CCCCCCCCC(C)O,01000000000000000100000000110000010000110000000000000000000000000000000000000000100000000000000000010000000000000000000100000000
2-chlorobutane,92.56816,520.6,0.291,341.25,CCCCCCCCC(C)=O,00000000001000100000000000101000010000110000000000000000000000000000000000000000100000000000000000000000000000000000000101000100
2-chlorobutane,92.56816,522.7,0.253,341.35,CCCCCCCCCCC1CCc2ccccc2C1,00000000000000000000000000100110010000100000010000000000000000001000000000100000110010100000000000001001000000000000000100010000
2-chloroethanol,80.5138,585.0,0.658,401.75,CCCCCCCCCCc1ccc2ccccc2c1,00000000000000000000000000100000010000100000000000000000000000011000000000000000110000100011000000001000000100000000000100000000
2-chloroheptane,134.6488,621.08,0.418,413.42,CCCCCCCC#CC,00000000000000000000000100100100011000100000000000000000000000000000000000000000100000000000000100000000000000000000000110000000
2-chlorohexane,120.62192,584.57,0.343,397.15,CCN(CC)CCO,00000000000000000000000000000001010010110000000000000000000000000000000000000000100000000100001000000000000000000100000000010000
2-chloronaphthalene,162.61828,785.0,0.383,529.15,CN(C)C(C)(C)CO,00000000100100000000000000000000010000010000000000000000000000000000100000000000100000000000001001000000000000000111000000000000
2-chlorononane,162.70256,661.88,0.505,463.15,CCCCCCCCCCC(C)S,01000000000000000000000000110000010000100000000000000000000000000000000000000000110000000000000000010100000010000000000100000000
2-chlorooctane,148.67568,642.41,0.462,445.15,CCCCCCCCCCC(C)O,01000000000000000100000000110000010000110000000000000000000000000000000000000000100000000000000000010000000000000000000100000000
2-chloropropane,78.54128,489.0,0.199,308.85,CCCCCCCCCCC(C)=O,00000000001000100000000000101000010000110000000000000000000000000000000000000000100000000000000000000000000000000000000101000100
2-decanethiol,174.35068,690.0,0.506,501.45,CCCCCCCCCCCCc1ccc2ccccc2c1,00000000000000000000000000100000010000100000000000000000000000011000000000000000110000100011000000001000000100000000000100000000
2-decanol,158.28408,673.2,0.575,490.15,CCCCCCCCCC#CC,00000000000000000000000100100100011000100000000000000000000000000000000000000000100000000000000100000000000000000000000110000000
"2-decanol, (±)",158.28408,629.0,0.793,484.15,CCCCCCCCCCCCCCCCCCC(C)S,01000000000000000000000000110000010000100000000000000000000000000000000000000000110000000000000000010100000010000000000100000000
2-decanone,156.2682,656.59,0.612,483.35,CCCCCCCCCCCCCCCCCCC(C)O,01000000000000000100000000110000010000110000000000000000000000000000000000000000100000000000000000010000000000000000000100000000
"2-decyl-[1,2,3,4-tetrahydronaphthalene]",272.47408,816.73,0.73,636.15,CCCCCCCCCCCCCCCCCCC(C)=O,00000000001000100000000000101000010000110000000000000000000000000000000000000000100000000000000000000000000000000000000101000100
2-decylnaphthalene,268.44232,843.81,0.762,656.15,CCCCCCCCCCCCCCCCCC#CC,00000000000000000000000100100100011000100000000000000000000000000000000000000000100000000000000100000000000000000000000110000000
2-decyne,138.25292,650.86,0.412,457.75,Cc1cccc(C)c1C=C,00000000000000000000000000000000010000000000000000000010001000001000000000000000010000100000001000011000000001010000000000000000
2-diethylaminoethanol,117.19124,592.0,0.782,436.15,Cc1ccc(C)c(C=C)c1,00000000000000000000000000000001010000000000000000000010001000000100000000000000010000100000000000011000000101010000000000000000
2-dimethylamino-2-methyl-1-propanol,117.19124,681.0,0.97,433.15,CCOC(C)CO,01000000000000000000000000010000110000110000000000000001000010000000000000000000100000100000001000100000000000000000000000000000
2-dodecanethiol,202.40444,720.0,0.593,538.35,CCOC(C)(C)CC,00000000100000000000000000000000010000110000000000000001000000001000000000000000100000100000000000010000000000000010000000000000
2-dodecanol,186.33784,704.8,0.631,525.15,CCOCCO,00000000000001000000000000000000010000110000000000000001000000000000000010000000100000100100001000000000000000000000000000000000
2-dodecanone,184.32196,687.46,0.691,519.85,CCOCCOC(C)=O,00000000001101000001000000000000010000110000000000000001000000000000000010000000100000100000000000000000000000000000000001000100
2-dodecylnaphthalene,296.49608,862.23,0.807,682.15,CCC(CC)C(O)=O,01000100101000000000000000000000010000110000000000001000000000000000000000000000100001000000000000000000000000000000000000000100
2-dodecyne,166.30668,686.26,0.498,499.15,CCc1ccccc1SC,01000001001000000000000000000000010000100000000000000000000100001000010000000000110000100000000000001000000000000000100000000000
2-eicosanethiol,314.61948,803.0,0.833,651.15,CCC(=C)C=C,00100000000000000000000000000000010000110000000000000010000000010000000010000000100000100000000000000000000001000000000000000010
2-eicosanol,298.55288,791.2,0.899,639.15,CCC(CC)CO,01000000100010000000000000000000010000110000000000000000000000000000000000000000100000000000001000100000000000000000000000000000
2-eicosanone,296.537,773.72,0.84,625.0,CCC(=C)CC,00100000000000000000000000000000010000110000000000000000000000000000000000000000100010100000000000000000000000000000000000000010
2-eicosyne,278.52172,786.42,0.744,625.15,CCCCCC(CC)CO,01000000100010000000000000100000010000110000000000000000000000000000000000000000100000000000001000110000000000000000000100000000
"2-ethenyl-1,3-dimethylbenzene",132.20528,679.34,0.375,465.57,CCCCC(CC)CO,01000000100010000000000000100000010000110000000000000000000000000000000000000000100000000000001000110000000000000000000100000000
"2-ethenyl-1,4-dimethylbenzene",132.20528,680.23,0.375,466.18,CCCCC(=C)CC,00100000000000000000000000101000010000110000000000000000000000000000000000000000100010100000000000000000000000000000000100000010
2-ethoxy-1-propanol,104.14908,582.0,0.783,413.65,CCCCCCC(CC)CO,01000000100010000000000000100000010000110000000000000000000000000000000000000000100000000000001000110000000000000000000100000000
2-ethoxy-2-methylbutane,116.20344,546.0,0.338,374.57,CCCC(CC)CO,01000000100010000000000000100000010000110000000000000000000000000000000000000000100000000000001000110000000000000000000000000000
2-ethoxyethanol,90.1222,569.0,0.758,408.15,CCCC(=C)CC,00100000000000000000000000101000010000110000000000000000000000000000000000000000100010100000000000000000000000000000000000000010
2-ethoxyethyl acetate,132.15948,607.3,0.552,429.74,CCCCCC(C)(O)CC,00000000100000000000000000101000010000110000000000000000000000000000000000000000100000000000000000000000000000000011100100000000
2-ethyl butyric acid,116.16008,655.0,0.633,466.95,CCCC=C(CC)C=O,00100000001000000100000000100000010000110000000000000010000000000000000000000000100000000000000100000000100010000000000000010000
2-ethyl-(1-thiaethyl)-benzene,152.26028,730.87,0.416,501.15,CCC(C)(CC)C(O)=O,00000100101000100000000000000000010000110000000000000000010000000000000000000000100000000000000000000000000000000010000000000100
"2-ethyl-1,3-butadiene",82.1454,531.56,0.251,348.15,CCCC(C)C(CC)C(O)=O,01000100101000000000000000110000010000110000000000001000000000000000000000000000100000000000000000010000000000000000000001010100
2-ethyl-1-butanol,102.17656,580.0,0.714,419.65,CCc1cc(C)ccn1,00000001000000000000000000000001010000100000100000000000001000000000000000100000110010100000000000001000000100000000000000100000
2-ethyl-1-butene,84.16128,511.0,0.252,337.82,CCc1cccc(C)c1N,00000001000000000001000000000000010000100000000001000000001000001000010000000000110000100000000000001000000000010000000000000000
2-ethyl-1-heptanol,144.2572,625.91,0.846,472.0,CCc1cccc(C)n1,00000001000000000000000000000000010000100000000000000000001000011001000000000000110010100000000000001000000000000000000000100000
2-ethyl-1-hexanol,130.23032,640.6,0.556,457.75,CCC1CCc2ccccc2C1,00000000000000000000000000000110010000100000011000000000000000001000000000100000110010100000000000001001000000000000000000010000
2-ethyl-1-hexene,112.21504,569.0,0.358,393.15,CCCCC(=C)CC,00100000000000000000000000101000010000110000000000000000000000000000000000000000100010100000000000000000000000000000000100000010
2-ethyl-1-octanol,158.28408,631.54,0.883,482.0,CCc1c(C)cccc1C,00000001000000000000000000000000010000100000000000000000001000001000000000000000110000100000000000001000000000010010000000000000
2-ethyl-1-pentanol,116.20344,598.5,0.764,439.15,CCc1cc(C)ccc1C,00000001000000000000000000000001010000100000000000000000001000000000010000000000110000100000000000001000000100010000000000000000
2-ethyl-1-pentene,98.18816,543.0,0.307,367.15,CCCC(=C)CC,00100000000000000000000000101000010000110000000000000000000000000000000000000000100010100000000000000000000000000000000000000010
2-ethyl-2-heptanol,144.2572,609.4,0.78,455.0,CCc1ccccc1c2ccccc2,00000001100000000000000000000000010000100000000000000000000000001000010000000000110000100000000010001000000000000000000000000000
2-ethyl-2-hexenal,126.19856,636.0,0.454,448.72,CCC(CC)C=O,01000000101000000000000000000000011000100000000000000010000000000000000000000000100000000000000000000000000010000000000000001000