name,molweight,critical temperature (K),acentric factor,boiling point (K),SMILES,ECFP_Bits
2-ethyl-2-methylbutanoic acid,130.18696,680.0,0.717,480.15,CCC(CC)C#N,01000000100000000000001000000000011000100000000000000000000000000000000000000000100000100100000000000000100000000000000000000000
2-ethyl-3-methylhexanoic acid,158.24072,703.0,0.831,504.15,CCC(CC)COC(C)=O,01000000101110000001000000000000010000110000000000000001000000000000000000000000100000000000000000000000000000000000001001000100
2-ethyl-4-methylpyridine,121.18208,653.0,0.376,447.15,CCc1ccccc1Cc2ccccc2,00000001000000000000001000000000010000100000000000000000000000001000010000000000110000100010000000001000000000000000000000000000
2-ethyl-6-methylaniline,135.20896,705.58,0.413,504.15,CCc1occc1,00000001000000101001000000000000010000100000000000000000000000001000000000000000110000100000000000001000000000000000000000000000
2-ethyl-6-methylpyridine,121.18208,653.0,0.376,433.65,CCCCCC(CC)C(O)=O,01000100101000000000000000100000010000110000000000001000000000000000000000000000100001000000000000010000000000000000000100000100
"2-ethyl-[1,2,3,4-tetrahydronaphthalene]",160.25904,739.79,0.424,515.75,CCCCC(CC)C=O,01000000101000000000000000100000011000100000000000000010000000000000000000000000100000000000000000010000000010000000000100001000
2-ethyl-cis-decahydronaphthalene,166.30668,726.73,0.374,508.15,CCCCC(CC)C(O)=O,01000100101000000000000000100000010000110000000000001000000000000000000000000000100001000000000000010000000000000000000100000100
2-ethyl-m-xylene,134.22116,671.0,0.407,463.19,CCCCC(CC)COC(C)=O,01000000101110000001000000100000010000110000000000000001000000000000000000000000100000000000000000010000000000000000001101000100
2-ethyl-p-xylene,134.22116,663.0,0.411,459.98,CCCCC(CC)COC(=O)C=C,01000000101010000001000000100000010000110000000001000011000000010000000000000000100000100000000000010000000001000000001100000100
2-ethyl-trans-decahydronaphthalene,166.30668,716.72,0.374,501.15,CCCCC(CC)CBr,01000000100010000000000000100000010000100000000000000000000000000000000000000000100000001001000000010000000000000000000100010000
2-ethylbiphenyl,182.26516,777.4,0.45,539.12,CCCCC(CC)CI,01000100100010000000010000100000010000100000000000000000000000000000000000000000100000010000000000010000000000000000000100000000
2-ethylbutanal,100.16068,568.76,0.433,389.95,CCC(C)CCCCCl,01000000100000000001000000010000010000100000000010000000000000000000000000000000100001010000000000010000000000000000000100000000
2-ethylbutanenitrile,97.16008,602.56,0.442,418.15,CCCCC(CC)CN,01000000100010000001000000100000010000100000000000000000000000000000000000000000100001000000000000010000000000000000010100000000
2-ethylbutyl acetate,144.21384,618.0,0.54,435.65,CCc1ccc2ccccc2c1,00000001000000000000000000000000010000100000000000000000000000011000000000000000110000100010000000001000000100000000000000000000
2-ethyldiphenylmethane,196.29204,785.23,0.522,564.01,CCC1=CC=CC=C1CC2=CC=CC=C2,00000001000000000000001000000000010000100000000000000000000000001000010000000000110000100010000000001000000000000000000000000000
2-ethylfuran,96.12892,557.25,0.333,365.65,CCc1ccccn1,00000001000000000000000000000000010000100000100000000000000000001000000000100000110010100000000000001000000000000000000000100000
2-ethylheptanoic acid,158.24072,703.0,0.831,456.91,CCc1ccc2ccccc2n1,00000001000000000000000000000000010000100000000000000000000000011000000001000000110010100000000000001000000000000000000000100000
2-ethylhexanal,128.21444,607.0,0.52,433.8,CCC1CCCO1,00001000000000001000000000000010011000100000011000000010000000000000000000000000100000000000000000000000000000010000000000010000
2-ethylhexanoic acid,144.21384,673.2,0.822,501.15,CCC1CCCCS1,00001000001000000000010000000010010100100000011000000000000000000000000000000000100000000000000000000010000000000000000000010000
2-ethylhexyl acetate,172.2676,642.4,0.599,472.92,CCC1CCCS1,00001000001000000000010000000010010100100000011000000000000000000000000000000000100000000000000000000010000000000000000000010000
2-ethylhexyl acrylate,184.2786,655.0,0.673,489.15,CCC1CS1,00000000001000000000000000000010010110100000001000000000000000000000000000000000100000000000000000000010000000000000000000010000
2-ethylhexyl bromide,193.12698,665.09,0.524,467.8,CCc1sccc1,00000001000000101000000000000001010100100000000000000000000000001000000000000000110000100000000000001000000000000000000000000000
2-ethylhexyl iodide,240.12745,665.98,0.857,490.71,CCC(F)=C,00100000100000000000000000000000010000110000000000000000000000000000000000000000100000100000000000001000000000000000000000001010
2-ethylhexyl-6-chloride,148.67568,642.41,0.462,442.45,CCCC(F)=C,00000000100000000000000000101000010000110000000000000000000000000000000000000000100000100000000000001000000000000000000000001010
2-ethylhexylamine,129.2456,601.45,0.5,442.35,CC(F)=C,00000000100000000000000000000000010000010000000000000000000000000000000000000000000000100000000000000100000000000000000001001010
2-ethylnaphthalene,156.22728,771.0,0.421,531.05,CC(C)C(C)(C)F,01000000100000000000000000010000010000000000010000000000000000000000000000000000000000000000000000000001000000000010010000000000
"2-ethylpentanoic acid, (±)",130.18696,680.0,0.717,482.35,CCCC(C)(C)F,00000000100000000000000000101000010000100000010000000000000100000000000000000000100000000000000000000000000000000010000000000000
2-ethylpyridine,107.1552,636.2,0.357,422.55,CC(C)(C)F,00000000100000000000000000000001010000000000010000000000000000000000000000000000000000000000000000000000000000000010000000000000
2-ethylquinoline,157.21508,775.1,0.497,518.65,CC(F)C(C)(C)C,01000000100000000000000000110000010000000000000000000000000000000000000000000000000000000000000000100000000001000010000000000000
2-ethyltetrahydrofuran,100.16068,580.07,0.308,382.15,CC(C)C(F)=C,01000000100000000000000000010100010000010000000000000000000000000000010000000000000000100000000000000000000000000000000000001010
2-ethylthiacyclohexane,130.25416,646.42,0.288,426.94,CC(C)=C(C)F,00000000100000000000000000000000010000010000000000000000000000000000000000000000000010000000000000000000000000000000000011001000
2-ethylthiacyclopentane,116.22728,659.28,0.273,430.15,CCC(C)C(C)F,01000000100000000000000000110000010000100000000000000000000000000000000000000000100000000000000100000000000000000000000001000000
2-ethylthiacyclopropane,88.17352,594.72,0.244,378.15,CC(C)CC(C)F,01000000100000000000000000110000011000001000000000000001000000000000000000000000100000000000000000000000000000000000000000000000
2-ethylthiophene,112.19552,623.6,0.298,407.15,CCC1=CC=CS1,00000001000000101000000000000001010100100000000000000000000000001000000000000000110000100000000000001000000000000000000000000000
2-fluoro-1-butene,74.0979832,462.01,0.237,297.65,CCC(=C)F,00100000100000000000000000000000010000110000000000000000000000000000000000000000100000100000000000001000000000000000000000001010
2-fluoro-1-pentene,88.1248632,469.43,0.281,309.63,CCC(C)F,01000000100000000000000000110000011000100000000000000000000000000000000000000000100000000000000000000000000000000000000000000000
2-fluoro-1-propene,60.0711032,396.62,0.193,249.15,CCCCC(C)F,01000000100000000000000000110000011000100000000000000000000000000000000000000000100000000000000000010000000000000000000100000000
"2-fluoro-2,3-dimethylbutane",104.1676232,508.31,0.282,340.0,CC(C)F,01000000100000000000000000110000010000000000000000000000000000000000000100000000000000000000000000000000000000000000000000000000
2-fluoro-2-methylpentane,104.1676232,523.26,0.282,350.0,OC(=O)c1ccccc1C=O,00000100001000000000000000000000000000010000000000000010000000001100000110000000010000100000000000001000000010000000000000000100
2-fluoro-2-methylpropane,76.1138632,446.83,0.194,285.25,CCCCCCCCCCCCCCCC(C)S,01000000000000000000000000110000010000100000000000000000000000000000000000000000110000000000000000010100000010000000000100000000
"2-fluoro-3,3-dimethylbutane",104.1676232,517.4,0.253,343.15,CCCCCCCCCCCCCCCC(C)O,01000000000000000100000000110000010000110000000000000000000000000000000000000000100000000000000000010000000000000000000100000000
2-fluoro-3-methyl-1-butene,88.1248632,472.95,0.251,309.19,CCCCCCCCCCCCCCCC(C)=O,00000000001000100000000000101000010000110000000000000000000000000000000000000000100000000000000000000000000000000000000101000100
2-fluoro-3-methyl-2-butene,88.1248632,486.02,0.246,316.99,CCCCCCCCCCCCCCC#CC,00000000000000000000000100100100011000100000000000000000000000000000000000000000100000000000000100000000000000000000000110000000
2-fluoro-3-methylpentane,104.1676232,519.0,0.313,350.0,CCCCCC(C)N,01000000000000000011000000110000010000100000000000000001000000000000000000000000100000000000000000010000000000000000000100000000
2-fluoro-4-methylpentane,104.1676232,519.0,0.313,350.0,CCCCCC(C)S,01000000000000000000000000110000010000100000000000000000000000000000000000000000110000000000000000010100000010000000000100000000
2-fluoro-cis-2-pentene,88.1248632,482.63,0.271,317.11,CCCCCC(C)O,01000000000000000100000000110000010000110000000000000000000000000000000000000000100000000000000000010000000000000000000100000000
2-fluorobutane,76.1138632,458.55,0.254,298.25,CCCCCC(C)=O,00000000001000100000000000101000010000110000000000000000000000000000000000000000100000000000000000000000000000000000000101000100
2-fluorohexane,104.1676232,528.59,0.342,359.35,CCCCC=CC,00000000000000000100000000100000010000100000000000000010000000000000000000001000100000000000000000000000000000000000000100000000
2-fluoropropane,62.0869832,415.68,0.204,263.81,CCCCCCCC1CCc2ccccc2C1,00000000000000000000000000100110010000100000010000000000000000001000000000100000110010100000000000001001000000000000000100010000
2-formylbenzoic acid,150.13384,772.0,0.819,561.0,CCCCCCCc1ccc2ccccc2c1,00000000000000000000000000100000010000100000000000000000000000011000000000000000110000100011000000001000000100000000000100000000
2-heptadecanethiol,272.53884,777.0,0.797,614.15,CCCCC#CC,00000000000000000000000100100100011000100000000000000000000000000000000000000000100000000000000100000000000000000000000110000000
2-heptadecanol,256.47224,764.4,0.801,601.15,CCCCCCCCCCCCCCC(C)S,01000000000000000000000000110000010000100000000000000000000000000000000000000000110000000000000000010100000010000000000100000000
2-heptadecanone,254.45636,745.97,0.827,592.15,CCCCCCCCCCCCCCC(C)O,01000000000000000100000000110000010000110000000000000000000000000000000000000000100000000000000000010000000000000000000100000000
2-heptadecyne,236.44108,753.8,0.68,584.15,CCCCCCCCCCCCCCC(C)=O,00000000001000100000000000101000010000110000000000000000000000000000000000000000100000000000000000000000000000000000000101000100
2-heptanamine,115.21872,565.35,0.409,415.15,CCCCCCCCCCCCCC#CC,00000000000000000000000100100100011000100000000000000000000000000000000000000000100000000000000100000000000000000000000110000000
2-heptanethiol,132.27004,632.0,0.388,436.75,CCCCCC(C)S,01000000000000000000000000110000010000100000000000000000000000000000000000000000110000000000000000010100000010000000000100000000
2-heptanol,116.20344,608.32,0.557,432.35,CCCCC(C)S,01000000000000000000000000110000010000100000000000000000000000000000000000000000110000000000000000010100000010000000000100000000
"2-heptanol, (±)",116.20344,587.2,0.709,432.15,CCCCC(C)O,01000000000000000100000000110000010000110000000000000000000000000000000000000000100000000000000000010000000000000000000100000000
2-heptanone,114.18756,611.4,0.419,424.18,CCCCCC(=O)C,00000000001000100000000000101000010000110000000000000000000000000000000000000000100000000000000000000000000000000000000101000100
2-heptene,98.18816,537.61,0.294,371.4,CCCCC(C)=O,00000000001000100000000000101000010000110000000000000000000000000000000000000000100000000000000000000000000000000000000101000100
2-heptylnaphthalene,226.36168,814.1,0.662,612.15,CCCCCCCCC(CO)CCCCCC,01000000000010000000000000100000010000110000000000000000000000000000000000000000100000000000001000110000000000000000000100000000
2-heptyne,96.17228,581.9,0.279,385.15,CCCCCCC1CCc2ccccc2C1,00000000000000000000000000100110010000100000010000000000000000001000000000100000110010100000000000001001000000000000000100010000
2-hexadecanethiol,258.51196,768.0,0.753,600.15,CCCCCCCCC(CCCCCC)C(O)=O,01000100001000000000000000100000010000110000000000001000000000000000000000000000100001000000000000010000000000000000000100000100
2-hexadecanol,242.44536,754.2,0.764,587.15,CCCCCCc1ccc2ccccc2c1,00000000000000000000000000100000010000100000000000000000000000011000000000000000110000100011000000001000000100000000000100000000
2-hexadecanone,240.42948,736.51,0.81,580.15,CCCCCCc1ccccc1O,00000000000000000000000000100000010000110000000000000000000000001010010100000000110000100001000000001000000000000000000100000000
2-hexadecyne,222.4142,742.19,0.65,569.15,CCCC#CC,00000000000000000000000100100100011000100000000000000000000000000000000000000000100000000000000100000000000000000000000010000000
"2-hexanamine, (±)",101.19184,559.92,0.404,390.65,CC(C)(O)C(O)=O,00000100101000000000000000000000010000010000000000000000010000000000000000000000000000000000000000000000000000000010100010000100
2-hexanethiol,118.24316,607.0,0.339,412.05,OC(C=C)C#N,01000000000000000000001000000000001000010000000000000010100000000000000000000000000000100100000000010000100001000000000010000000
2-hexanol,102.17656,585.9,0.556,413.04,OCCOC(=O)C=C,00000000001001000001000000000000000000010000000001000011000000010000000000000000100000100100001000000000000001000000000000000100
"2-hexanol, (R)",102.17656,581.8,0.582,410.15,CCC(I)=C,00100000000000100000010000000000010000110000000000100000000000000000000000000000100000100000000000000000000000000000000000000010
2-hexanone,100.16068,587.61,0.385,400.7,CCCC(I)=C,00000000000000100000010000101000010000110000000000100000000000000000000000000000100000100000000000000000000000000000000000000010
2-hexene; (cis+trans),84.16128,506.59,0.25,341.15,CC(I)=C,00000000000000100000010100000000010000010000000000000000000000000000000000000000000000100000000000000000000000000000000001000010
2-hexyl-1-decanol,242.44536,757.6,0.756,568.53,CC(C)C(C)(C)I,01000000100000000000010000010000010000000000000000000000000000000000000000000000000000000000000000000001000000000010000000001000
"2-hexyl-[1,2,3,4-tetrahydronaphthalene]",216.36656,784.07,0.594,583.15,CCCC(C)(C)I,00000000100001000000010000101000010000100000000000000000000000000000000000000000100000000000000000000000000000000010000000000000
2-hexyldecanoic acid,256.42888,776.0,1.083,586.63,CC(C)(C)I,00000000100000000000010000000000010000000010000000000000000000000000000000000000000000000000000000000000000000000010000000000000
2-hexylnaphthalene,212.3348,803.49,0.623,596.15,CC(I)C(C)(C)C,01000000100000001000010000010000010000000000000000000010000000000000000000000000000000000000000000000000000001000010000000000000
2-hexylphenol,178.27432,755.67,0.59,524.28,CC(C)C(I)=C,01000000000000100000010000010001010000010000000000000000000000000000010000000000000000100000000000000000000000000000000000000010
2-hexyne,82.1454,549.0,0.221,357.67,CC(C)=C(C)I,00000000000000100000010000000000010000010000000000000000100000000000000000000000000000000000000000000000000000000000000011000000
2-hydroxy-2-methylpropanoic acid,104.10572,664.0,0.983,485.15,CCC(C)C(C)I,01000000100000001000010000010000010000100000000000000000000000000000000000000000100100000000000000000000000000000000000001000000
2-hydroxy-3-butenenitrile,83.08984,639.0,0.844,461.0,CC(C)CC(C)I,01000000000000001000010000010000010000001000000000000011000000000000000000000000100000000000000000000000000000000000000000000000
2-hydroxyethyl acrylate,116.11672,662.0,0.864,484.0,C=CC(=O)OCCO,00000000001001000001000000000000000000010000000001000011000000010000000000000000100000100100001000000000000001000000000000000100
2-iodo-1-propene,167.97717,597.58,0.184,373.15,CC(=C)I,00000000000000100000010100000000010000010000000000000000000000000000000000000000000000100000000000000000000000000000000001000010
"2-iodo-2,3-dimethylbutane",212.07369,597.98,0.668,426.59,CCC(C)I,01000000100000001000010000010000010000100000000000000010000000000000000000000000100000000000000000000000000000000000000000000000
2-iodo-2-methylpentane,212.07369,597.98,0.668,426.59,CCCC(C)(C)I,00000000100001000000010000101000010000100000000000000000000000000000000000000000100000000000000000000000000000000010000000000000
2-iodo-2-methylpropane,184.01993,587.9,0.179,373.16,CCCCCC(C)I,01000000000000001000010000110000010000100000000000000010000000000000000000000000100000000000000000010000000000000000000100000000
"2-iodo-3,3-dimethylbutane",212.07369,608.43,0.635,431.15,CCCCC(C)I,01000000000000001000010000110000010000100000000000000010000000000000000000000000100000000000000000010000000000000000000100000000
2-iodo-3-methyl-2-butene,196.03093,633.35,0.236,410.86,CC(C)I,01000000000000001000010000010000010000000000000000000000000000000000000000010000000000000000000000000000000000000000000000000000
2-iodo-3-methylpentane,212.07369,597.44,0.705,428.94,CC(C)Cc1ccc2ccccc2c1,01000000000000000000000000010000010000000000000000000001000000011000000000000001110000100010000000001000000100000000000000000000
2-iodo-4-methylpentane,212.07369,599.13,0.705,430.15,CC(C)Cc1ccccc1O,01000000000000000000000000010000010000010000000000000001000000001010010100000001110000100000000000001000000000000000000000000000
2-iodo-cis-2-butene,182.00405,608.34,0.217,388.1,CC(C)(C)N=C=O,00000000101000000000000000000000011000000000000000000010000000000000000000000000000101000000000000000000000000000010000010010000
2-iodo-cis-2-pentene,196.03093,628.8,0.261,410.98,CC(C)OCCO,01000000000001000000000000010000010000010000000000000001001010000000000000000000100000000100001000000000000000000000000000000000
2-iodo-trans-2-butene,182.00405,608.34,0.217,388.1,CCCC(CO)C(C)C,01000000000000000000000000110000010000110000000000000000000000000000000000000000101000000000001000110000000001000000000000000000
2-iodo-trans-2-pentene,196.03093,628.8,0.261,410.98,CCCC(=C)C(C)C,01000000000000000000000000111000010000110000000000000000000000000000010000000000100000100000000000000000000000000000000000010010
2-iodobutane,184.01993,563.37,0.648,393.15,CCCC(C)c1cccc(C(C)C)c1O,01000000000000000000000000110000010000110000000000000000000000001010000000100000110000100000000000011000000001000000001000000000
"2-iodobutane, (±)",184.01993,572.4,0.54,393.25,CC(C)c1ccccc1N,01000000000000100001000000010000010000000000000001000000000000001000000000000000010000100000000000001000000001000000000000000000
2-iodoheptane,226.10057,646.56,0.816,477.1,CC(C)c1ccc2ccccc2c1,01000000000000000000000000010000010000000000000000000000000000011000000000000000010001100000000000001000000100000000000000000000
2-iodohexane,212.07369,611.98,0.739,442.15,CC(C)c1ccccc1O,01000000000000000000000000010000010000010000000000000000000000001010000100000000010000100000000000001000000001000000000000000000
"2-iodooctane, (±)",240.12745,665.98,0.857,483.15,CC(C)c1ccccn1,01000000000000000000000000010000010000000000100000000000000000001000000000100000010000100000000000001000000000000000010000100000
2-iodopropane,169.99305,578.0,0.238,362.65,CC(C)c1sccc1,01000000000000100000000000010001010100000000000000000000000000001000000000000000010000100000000000001000000000000000000000000000
2-isobutylnaphthalene,184.28104,818.49,0.508,585.41,OCCS,00000000000010000000000000000000000000010000000000010000000000000000000000000000100000000100001000000100000000000000000000000000
2-isobutylphenol,150.22056,733.0,0.51,510.0,CC(C)CC1=CC=CC=C1O,01000000000000000000000000010000010000010000000000000001000000001010010100000001110000100000000000001000000000000000000000000000
2-isocyanato-2-methylpropane,99.1326,568.0,0.415,444.47,COC(C)CO,01000000000000000000000000010000110000010000000000000001000000000000000101000000100000000000001000100000000000000000000000000000
2-isopropoxyethanol,104.14908,582.0,0.783,418.15,COCCO,00000000000001000000000000000000010000010000000000000001000000000000000001000000100000000100001000000000000001000000000000000000