name,molweight,critical temperature (K),acentric factor,boiling point (K),SMILES,ECFP_Bits
diethylheneicosylamine,367.70256,803.37,0.708,656.15,CC(C)NC(C)C,11001000000000000000000000010000010000000000000000000000000000000000000000000000000100000000000000000000000000000000000000000000
diethylheptadecylamine,311.59504,758.3,0.804,614.15,CC(C)c1ccccc1C(C)C,01000000000000000000000000010000010000000000000000000000000000001000000000000000010000100000000000001000000001000000000000000000
diethylheptylamine,171.32624,634.32,0.609,471.15,C=C1CC(=O)O1,00000000001000101010000000001010000100000000000000000000001000000000000000100000000000100000000000001000000000000000000000000000
diethylhexylamine,157.29936,617.59,0.568,452.15,CO[Si](C)(C)OC,00000000000000001000001000000000010000000000000000000001000000000000000001000000000000000000000000000000000000000000000000100000
diethylisopropylamine,115.21872,552.49,0.406,381.65,COC(=O)OC,10000000001000000000000000000000010000010000000000000001000000000000000001000000000000000000000000000000000000000000010000000100
diethylnonylamine,199.38,661.69,0.684,504.15,CSSC,00000000001000000000000000000000010001000000000000000000000000000000000000000000000000000000000000000000000000000000100000000000
diethyloctadecylamine,325.62192,769.24,0.79,625.15,COC,00000000000000000000000000000000010000000000000000000001000000000000000001000001000000000000000000000000000000000000000000000000
diethyloctylamine,185.35312,645.88,0.648,486.15,COC(=O)c1cccc(c1)C(=O)OC,10000000001000000100000000000000010000010000000000000001000000001000000001000000010000100000000000001000010100000000000000000100
diethylpentadecylamine,283.54128,735.67,0.811,590.15,COC(=O)\C=C/C(=O)OC,10000000001000000000000000000001010000010000000001000011000000000000000001000000000000000000000000000000000000000000000000000100
diethylpentylamine,143.27248,595.41,0.525,429.15,Cc1cccc(O)c1C,00000000000000000000000000000000010000010000000000000000001000001010000100000000010000100000000000001000000000010000000000001000
diethylpropylamine,115.21872,553.45,0.437,385.15,COC(=O)c1ccccc1C(=O)OC,10000000001000000100000000000000010000010000000000000001000000001000000101000000010000100000000000001000000000000000000000000100
diethyltetradecylamine,269.5144,723.91,0.804,577.15,C[SiH2]C,00000000000000000000000000010000010000000000000000000000000000000000000000000000000000000000000000000000000000000000000000001100
diethyltridecylamine,255.48752,712.65,0.791,564.15,COC(=O)CCC(=O)OC,10000000001000000000000000001000010000010000000000000001000000000000000001000000100000000000000000000000001000000000000000000100
diethylundecylamine,227.43376,688.97,0.746,536.15,CO[S](=O)(=O)OC,10000000001000000000000000000000010000000100000000000001000000000000100001000000000000000000001000000000000000000000000000000000
difluoromethane,52.0236864,351.26,0.277,221.5,CSC,00000000001000000000000000000000010000000000000000000000000000000000000000000000000000000000000000000000000000000000100000100000
digermane,151.26764,491.01,0.165,303.95,C[S](C)=O,00000000001000000000000000000000010000001001000000000000000000000000000000000100000000000000000000000000000000000100000000000000
diglycolic acid,134.08864,820.0,0.108,610.0,COC(=O)c1ccc(cc1)C(=O)OC,10000000001000000100000000000000010000010000000000000001000000000000000001000000010000100000000000001000010000000000000000000100
diheptyl disulfide,262.5242,765.96,0.758,593.86,CCC(C)(C)N(C)C,00000000100100000000000000000000010000110000000000000000000000000000100000000000100000000000000001000000000000000110000000000000
diheptyl ether,214.3916,692.83,0.71,535.15,CC(C)C(C)N(C)C,01000000000100000000000000011000010000000000000000000000000000000100000000000000000000000000000000000000000001000100000000000000
diheptyl phthalate,362.50956,815.0,1.105,663.0,CN(C)CC(C)(C)C,00000000100110000000000000000000010000000000000000000000000000000000000000000000100000000000000000000100000000000110010000000000
diheptyl sulfide,230.4582,762.23,0.7,571.15,COC(=O)c1ccc2cc(ccc2c1)C(=O)OC,10000000001000000100000000000000010000010000000000000001000000010000000001000000010000100000000000001000010100000000000000000100
diheptylamine,213.40688,706.4,0.761,545.15,CCC(C)CN(C)C,01000000100110000000000000010000010000100000000000000000000000000000100000000000100000010000000000000000000000000100000000000000
dihexyl adipate,314.46556,767.0,1.094,621.15,CCCC(C)N(C)C,01000000000100000000000000110000010000100000000000000000000000000100000000000000100000000000000000010000000000000100000000000000
dihexyl disulfide,234.47044,747.1,0.692,566.66,CC(C)CCN(C)C,01000000000110000000000000010001010000000000000000000001000000000000000000000000100000000000000000010000000000000100000000000000
dihexyl ether,186.33784,658.0,0.711,498.85,CCC(CC)N(C)C,01000000100100000000000000000000010000100000000000000000000000000101000000000000100000000000000000000000000000000100000000000000
dihexyl sulfide,202.40444,733.68,0.631,503.15,CCCN(C)C,00000000000110000000000000100001010000100000000000000000000000000000000000000000100000000000000000000000000000000100000000000000
dihexylamine,185.35312,678.2,0.69,512.95,CCC(C)N(C)C,01000000100100000000000000010000010000100000000000000000000000000100000000000000100000000000000000000000000000000100000000000000
diiodomethane,267.83582,747.0,0.141,455.15,CN(C)C(C)(C)C,00000000100100000000000000000000010000000010000000000000000000000000000000000000000000000000000001000000000000000110000000000000
diisobutyl ketone,142.24132,615.0,0.512,441.41,CC#CC,00000000000000000000000000000000011000000000000000000000000000000000000000000000000000000000000100000000000000000000000010000000
diisobutyl phthalate,278.34828,762.0,0.916,593.15,[Cl-].C[Al+]C,00000000000000000000000000000000010000000000000000001010000000000000000000100000000000000000000000000000000000000000000000000000
diisobutyl sulfide,146.29692,658.04,0.447,444.15,CNC,10000000000000000000001000010000010000000000000000000000000000000000000000000000000000000000000000000000000000000000000000000000
diisobutyl sulfone,178.29572,767.0,0.688,538.15,CCCCN(C)C,00000000000110000000000000100001010000100000000000000000000000000000000000000000100000000000000000000000000000000100000100000000
diisobutylamine,129.2456,580.0,0.485,412.25,CCCCCCCCCCN(C)C,00000000000110000000000000100001010000100000000000000000000000000000000000000000100000000000000000000000000000000100000100000000
diisononyl phthalate,418.61708,835.0,1.031,682.0,CCCCCCCCCCCCCCCCCCCCCCN(C)C,00000000000110000000000000100001010000100000000000000000000000000000000000000000100000000000000000000000000000000100000100000000
diisooctyl phthalate,390.56332,851.0,1.088,694.0,CCCCCCCCCCCCN(C)C,00000000000110000000000000100001010000100000000000000000000000000000000000000000100000000000000000000000000000000100000100000000
diisopentyl disulfide,206.41668,726.94,0.614,520.15,CCCCCCCCCCCCCCCCCCCCN(C)C,00000000000110000000000000100001010000100000000000000000000000000000000000000000100000000000000000000000000000000100000100000000
diisopentyl ether,158.28408,622.0,0.601,445.65,CC(C)(O)CN,00000000100000000001000000000000010000010000000000000000000000000000000000000000100001010000000000000000001000000010100000000000
diisopentyl sulfide,174.35068,701.03,0.551,489.2,CCN(C)C,00000000000110000000000000000000010010100000000000000000000000000000000000000000100000000000000000000000000000000100000000000000
diisopentylamine,157.29936,644.56,0.585,461.15,CCCCCCCCCCCCCCCCCCCCCN(C)C,00000000000110000000000000100001010000100000000000000000000000000000000000000000100000000000000000000000000000000100000100000000
diisopropyl disulfide,150.30916,673.0,0.37,450.15,CCCCCCCCCCCCCCCCCN(C)C,00000000000110000000000000100001010000100000000000000000000000000000000000000000100000000000000000000000000000000100000100000000
diisopropyl ether,102.17656,500.05,0.339,341.45,CCCCCCCN(C)C,00000000000110000000000000100001010000100000000000000000000000000000000000000000100000000000000000000000000000000100000100000000
diisopropyl sulfide,118.24316,585.71,0.316,393.19,CCCCCCCCCCCCCCCCN(C)C,00000000000110000000000000100001010000100000000000000000000000000000000000000000100000000000000000000000000000000100000100000000
diisopropylamine,101.19184,523.1,0.388,357.05,CCCCCCN(C)C,00000000000110000000000000100001010000100000000000000000000000000000000000000000100000000000000000000000000000000100000100000000
diisopropylbenzene,162.27492,697.15,0.437,473.6,CC(C)CN(C)C,01000000000110000000000000010000010000000000000000000001000000000000100000000000100000000000000000000000000000000100000000000000
diketene,84.07456,616.0,0.382,399.2,CC(C)N(C)C,01000000000100000000000000010000010000000000000000000000000000000100100000000000000000000000000000000000000000000100000000000000
dimethoxydimethylsilane,120.22358,524.0,0.263,354.55,CCCCCCCCCCCCCCCCCCCN(C)C,00000000000110000000000000100001010000100000000000000000000000000000000000000000100000000000000000000000000000000100000100000000
dimethyl carbonate,90.07884,548.0,0.385,363.4,CCCCCCCCCN(C)C,00000000000110000000000000100001010000100000000000000000000000000000000000000000100000000000000000000000000000000100000100000000
"dimethyl cyclohexane-1,4-dicarboxylate; (cis+trans)",200.23464,736.0,0.641,539.15,CCCCCCCCCCCCCCCCCCN(C)C,00000000000110000000000000100001010000100000000000000000000000000000000000000000100000000000000000000000000000000100000100000000
dimethyl disulfide,94.20164,615.0,0.206,382.9,CCCCCCCCN(C)C,00000000000110000000000000100001010000100000000000000000000000000000000000000000100000000000000000000000000000000100000100000000
dimethyl ether,46.06904,400.1,0.2,248.31,CCCCCCCCCCCCCCCN(C)C,00000000000110000000000000100001010000100000000000000000000000000000000000000000100000000000000000000000000000000100000100000000
dimethyl isophthalate,194.187,719.0,0.655,523.0,CCCCCN(C)C,00000000000110000000000000100001010000100000000000000000000000000000000000000000100000000000000000000000000000000100000100000000
dimethyl maleate,144.12712,675.0,0.562,478.15,CCCCCCCCCCCCCCN(C)C,00000000000110000000000000100001010000100000000000000000000000000000000000000000100000000000000000000000000000000100000100000000
dimethyl phenol,122.1668,713.62,0.513,411.65,CCCCCCCCCCCCCCCCCCCCCCCN(C)C,00000000000110000000000000100001010000100000000000000000000000000000000000000000100000000000000000000000000000000100000100000000
dimethyl phthalate,194.187,766.0,0.657,556.85,CCCCCCCCCCCCCN(C)C,00000000000110000000000000100001010000100000000000000000000000000000000000000000100000000000000000000000000000000100000100000000
dimethyl silane,60.17102,402.0,0.13,253.55,CCCCCCCCCCCN(C)C,00000000000110000000000000100001010000100000000000000000000000000000000000000000100000000000000000000000000000000100000100000000
dimethyl succinate,146.143,657.0,0.622,469.35,CCCCCCCCCSSCCCCCCCCC,10000000000000000000000000100010010000100000000000000000000000000000000000000000100000000000000000000000000000000000100100000000
dimethyl sulfate,126.13324,716.0,0.439,462.15,CCCCCCCCCOCCCCCCCCC,00000000000001000000000000100000010000100000000000000001000000000000000010000000100000000000000000000000000000000000000100000000
dimethyl sulfide,62.13564,503.04,0.194,310.48,CCCCCCCCCOC(=O)c1ccccc1C(=O)OCCCCCCCCC,00000000001001000101000000100000010000110000000000000001000000001000000100000000110000100000000000001000000000000000000100000100
dimethyl sulfoxide,78.13504,729.0,0.281,464.0,CCCCCCCCCSCCCCCCCCC,00000000000000000000000000100010010000100000000000000000010000000000000000000000100000000000000000000000000000000000100100000000
dimethyl terephthalate,194.187,772.0,0.637,561.15,CCCCCCCCCNCCCCCCCCC,10000000000000000000000000110000010000100000000000000000000000000000000000000000100000000000000000000000000010000000000100000000
"dimethyl-1,1-dimethylpropylamine",115.21872,574.99,0.344,391.15,CCCCCCCCSSCCCCCCCC,10000000000000000000000000100010010000100000000000000000000000000000000000000000100000000000000000000000000000000000100100000000
"dimethyl-1,2-dimethylpropylamine",115.21872,565.3,0.406,390.5,CCCCCCCCOCCCCCCCC,00000000000001000000000000100000010000100000000000000001000000000000000010000000100000000000000000000000000000000000000100000000
"dimethyl-2,2-dimethylpropylamine",115.21872,574.03,0.344,390.5,CCCCCCCCSCCCCCCCC,00000000000000000000000000100010010000100000000000000000010000000000000000000000100000000000000000000000000000000000100100000000
"dimethyl-2,6-naphthalenedicarboxylate",244.24688,883.0,0.685,650.86,CCCCCCCCNCCCCCCCC,10000000000000000000000000110000010000100000000000000000000000000000000000000000100000000000000000000000000010000000000100000000
dimethyl-2-methylbutylamine,115.21872,561.68,0.406,388.0,CCCCCSSCCCCC,10000000000000000000000000100010010000100000000000000000000000000000000000000000100000000000000000000000000000000000100100000000
dimethyl-2-pentylamine,115.21872,553.21,0.406,382.15,CCCCCSCCCCC,00000000000000000000000000100010010000100000000000000000010000000000000000000000100000000000000000000000000000000000100100000000
dimethyl-3-methylbutylamine,115.21872,559.73,0.406,386.65,CCCCCNCCCCC,10000000000000000000000000110000010000100000000000000000000000000000000000000000100000000000000000000000000010000000000100000000
dimethyl-3-pentylamine,115.21872,563.35,0.406,389.15,O(c1ccccc1)c2ccccc2,00000000000000000000000000000000000000000000000000000001000000001010000000000000010000100000000000001000000000000000000000000000
dimethyl-propylamine,87.16496,528.0,0.175,339.15,c1ccc(cc1)C#Cc2ccccc2,00000000000000000000000000000000001000000000001000000000000000001000000000000000010000100000000000001010000000000000000000000000
dimethyl-sec-butylamine,101.19184,542.32,0.361,367.15,N(c1ccccc1)c2ccccc2,10000000000000000000000000000000000000000000000000000000000000011000000000000000010000100000000000001000000100000000000000000000
dimethyl-tert-butylamine,101.19184,545.31,0.3,363.15,C(c1ccccc1)c2ccccc2,00000000000000000000001000000000000000000000000000000000000000001000000000000000110000100010000000001000000000000000000000000000
dimethylacetylene,54.09164,473.2,0.239,300.13,CC#CC,00000000000000000000000000000000011000000000000000000000000000000000000000000000000000000000000100000000000000000000000010000000
dimethylaluminum chloride,92.503879,619.0,0.183,399.15,CCCSSCCC,10000000000000000000000000100010010000100000000000000000000000000000000000000000100000000000000000000000000000000000100000000000
dimethylamine,45.08432,437.2,0.3,280.03,CCCOCCC,00000000000001000000000000100000010000100000000000000001000000000000000010000000100000000000000000000000000000000000000000000000
dimethylbutylamine,101.19184,538.0,0.34,367.15,CCCOC(=O)\C=C/C(=O)OCCC,00000000001001000001000000100001010000110000000001000011000000000000000000000000100000000000000000000000000000000000000000000100
dimethyldecylamine,185.35312,685.3,0.536,508.15,CCCOC(=O)c1ccccc1C(=O)OCCC,00000000001001000101000000100000010000110000000000000001000000001000000100000000110000100000000000001000000000000000000000000100
dimethyldocosylamine,353.67568,824.83,0.737,673.15,CCCSCCC,00000000000000000000000000100010010000100000000000000000010000000000000000000000100000000000000000000000000000000000100000000000
dimethyldodecylamine,213.40688,714.5,0.612,544.15,CCC[S](=O)(=O)CCC,00000000001010000000000000100000010000100000000000000000000000000000100000000000100000000000001001000000000000000000000000000000
dimethyleicosylamine,325.62192,802.46,0.79,652.15,CCOC(C)COC(C)CO,01000000000000000000000000010000110000110000000000000001000010000000000000000000100000100000001000100000000000000000001000000000
dimethylethanolamine,89.13748,571.82,0.711,407.15,COC(C)COC(C)CO,01000000000000000000000000010000110000010000000000000001000010000000000101000000100000000000001000100000000000000000001000000000
dimethylethylamine,73.13808,500.0,0.097,310.15,[SiH3][SiH3],00000000000000000000000000000000000000000000000000000000000000000000000010000001000000000000000000000000000000000000000000000000
dimethylheptylamine,143.27248,630.7,0.404,445.15,[SiH3]O[SiH3],00000000000000000000000000000000000000000000000000000001000000000000000010000000000000000000100000000000000000000000000000000010
dimethylhexadecylamine,269.5144,760.9,0.716,603.15,CCC(C)SSC(C)CC,01000000100000000000000000010000010000110000000000000000000000000000010000000000100000000000000000000000000000000000100000000000
dimethylhexylamine,129.2456,608.7,0.323,418.15,CC(C)CSSCC(C)C,11000000000000000000000000010000010000000000000000000001000000000000010000000000100000000000000000000000000000000000100000000000
dimethylisobutylamine,101.19184,523.11,0.361,354.15,CCCCCCCCCCCOC(=O)c1ccccc1C(=O)OCCCCCCCCCCC,00000000001001000101000000100000010000110000000000000001000000001000000100000000110000100000000000001000000000000000000100000100
dimethylisopropylamine,87.16496,511.91,0.317,339.15,CCCCCCCCCCCNCCCCCCCCCCC,10000000000000000000000000110000010000100000000000000000000000000000000000000000100000000000000000000000000010000000000100000000
"dimethylnaphthalene, isomers",156.22728,776.35,0.424,537.28,C=COC=C,00000000000000000000000000000000000000000000000000000011000000000000000000000000000100100000000100000000000001000000000000000000
dimethylnonadecylamine,311.59504,791.64,0.804,641.15,CCCCCCCCCCCCCCCCCCCCCC,00000000000000000000000000100000010000100000000000000000000000000000000000000000100000000000000000000000000000000000000100000000
dimethylnonylamine,171.32624,668.7,0.483,488.15,CCCCCCCCCCCCCCCCCCCCCCN,00000000000000000001000000100000010000100000000010000000000000000000000000000000100001000000000000000000000000000000000100000000
dimethyloctadecylamine,297.56816,779.7,0.763,629.15,C[Si](C)(C)O[Si](C)(C)O[Si](C)(C)O[Si](C)(C)O[Si](C)(C)C,00000000000000001000000000000000010000000000000000000001000000000000000000000000100010000000000000000000000000000000000000100000
dimethyloctylamine,157.29936,650.6,0.415,464.15,CCCCCCCCCCCC=O,00000000001000000100000000100000010000100000000000000010000000000000000000000000100000000000000000000000100010000000000100000000
dimethylpentadecylamine,255.48752,750.5,0.699,590.15,CCCCCCCCCCCC,00000000000000000000000000100000010000100000000000000000000000000000000000000000100000000000000000000000000000000000000100000000
dimethylpentylamine,115.21872,584.2,0.298,395.15,CCCCCCCCCCCC#N,00000000000000000000001000100100011000100000000000000000000000000100000000000000100000000000000000000000100000000000000100000000
dimethyltetradecylamine,241.46064,739.4,0.669,575.15,CCCCCCCCCCCC(O)=O,00000100001000000000000000101000010000110000000000000000000000000000000001000000100000000000000000000000000000000000000100000100
dimethyltricosylamine,367.70256,836.42,0.708,683.15,CCCCCCCCCCCCOC(C)=O,00000000001101000001000000100000010000110000000000000001000000000000000000000000100000000000000000000000000000000000000101000100
dimethyltridecylamine,227.43376,727.4,0.643,560.15,CCCCCCCCCCCCOC=O,00000000001001000000000000100001010000100000000000000011000000000000000000000000100000000000000000000010000010000000000100000000
dimethylundecylamine,199.38,700.5,0.57,526.15,CCCCCCCCCCCCN,00000000000000000001000000100000010000100000000010000000000000000000000000000000100001000000000000000000000000000000000100000000
dinonyl disulfide,318.63172,802.3,0.832,642.16,CCCCCCCCCCCCc1ccccc1,00000000000000000000000000100000010000100000000000000000000000001000000000000000110000100011000000001000000000000000000100000000
dinonyl ether,270.49912,736.0,1.002,591.0,CCCCCCCCCCCCC1CCCCC1,00001000000000000000000000100110010000100000010000000000000000001000000000000000100000000000000000000000000000000000000100010000
dinonyl phthalate,418.61708,866.0,0.996,707.0,CCCCCCCCCCCCC1CCCC1,00001000000000000000000000100110010000100000010000000000000000001000000000000000100000000000000000000000000000000000000100010000
dinonyl sulfide,286.56572,810.53,0.787,625.0,CCCCCCCCCCCCCCCCCCCC=O,00000000001000000100000000100000010000100000000000000010000000000000000000000000100000000000000000000000100010000000000100000000